# Forces      
# CofR        : (3.333300e-01 0.000000e+00 0.000000e+00)
# Time        forces(pressure viscous porous)	moments(pressure viscous porous)
0.05          	((6.303546e-04 -9.993579e-01 -6.605026e-22) (6.019173e-04 1.799266e-04 -1.184415e-21) (0.000000e+00 0.000000e+00 0.000000e+00)) ((4.996789e-03 3.151773e-06 3.331160e-01) (-8.996332e-07 3.009587e-06 -9.279520e-05) (0.000000e+00 0.000000e+00 0.000000e+00))
0.1           	((5.595037e-04 -9.994019e-01 -6.113982e-22) (4.945571e-04 2.021208e-04 -1.186090e-21) (0.000000e+00 0.000000e+00 0.000000e+00)) ((4.997009e-03 2.797518e-06 3.331306e-01) (-1.010604e-06 2.472785e-06 -9.432644e-05) (0.000000e+00 0.000000e+00 0.000000e+00))
0.15          	((5.405522e-04 -9.994121e-01 -6.074499e-22) (4.577383e-04 2.109487e-04 -1.187093e-21) (0.000000e+00 0.000000e+00 0.000000e+00)) ((4.997060e-03 2.702761e-06 3.331340e-01) (-1.054744e-06 2.288692e-06 -9.530430e-05) (0.000000e+00 0.000000e+00 0.000000e+00))
0.2           	((5.347180e-04 -9.994038e-01 -6.123333e-22) (4.418279e-04 2.159357e-04 -1.187663e-21) (0.000000e+00 0.000000e+00 0.000000e+00)) ((4.997019e-03 2.673590e-06 3.331313e-01) (-1.079678e-06 2.209139e-06 -9.615041e-05) (0.000000e+00 0.000000e+00 0.000000e+00))
0.25          	((5.327236e-04 -9.993781e-01 -6.165891e-22) (4.342352e-04 2.185837e-04 -1.187881e-21) (0.000000e+00 0.000000e+00 0.000000e+00)) ((4.996891e-03 2.663618e-06 3.331227e-01) (-1.092918e-06 2.171176e-06 -9.665225e-05) (0.000000e+00 0.000000e+00 0.000000e+00))
0.3           	((5.315787e-04 -9.993293e-01 -6.188633e-22) (4.301406e-04 2.196297e-04 -1.188003e-21) (0.000000e+00 0.000000e+00 0.000000e+00)) ((4.996646e-03 2.657894e-06 3.331064e-01) (-1.098149e-06 2.150703e-06 -9.679685e-05) (0.000000e+00 0.000000e+00 0.000000e+00))
0.35          	((5.311162e-04 -9.992469e-01 -6.205887e-22) (4.278119e-04 2.200034e-04 -1.188083e-21) (0.000000e+00 0.000000e+00 0.000000e+00)) ((4.996234e-03 2.655581e-06 3.330790e-01) (-1.100017e-06 2.139059e-06 -9.680875e-05) (0.000000e+00 0.000000e+00 0.000000e+00))
0.4           	((5.318095e-04 -9.991217e-01 -6.230269e-22) (4.267782e-04 2.203777e-04 -1.188030e-21) (0.000000e+00 0.000000e+00 0.000000e+00)) ((4.995608e-03 2.659047e-06 3.330372e-01) (-1.101888e-06 2.133891e-06 -9.688987e-05) (0.000000e+00 0.000000e+00 0.000000e+00))
0.45          	((5.336749e-04 -9.989526e-01 -6.264790e-22) (4.268510e-04 2.210384e-04 -1.187778e-21) (0.000000e+00 0.000000e+00 0.000000e+00)) ((4.994763e-03 2.668374e-06 3.329809e-01) (-1.105192e-06 2.134255e-06 -9.712525e-05) (0.000000e+00 0.000000e+00 0.000000e+00))
0.5           	((5.362265e-04 -9.987503e-01 -6.305185e-22) (4.277533e-04 2.220074e-04 -1.187340e-21) (0.000000e+00 0.000000e+00 0.000000e+00)) ((4.993752e-03 2.681132e-06 3.329134e-01) (-1.110037e-06 2.138767e-06 -9.750655e-05) (0.000000e+00 0.000000e+00 0.000000e+00))
0.55          	((5.388835e-04 -9.985332e-01 -6.345291e-22) (4.291242e-04 2.231793e-04 -1.186779e-21) (0.000000e+00 0.000000e+00 0.000000e+00)) ((4.992666e-03 2.694417e-06 3.328411e-01) (-1.115896e-06 2.145621e-06 -9.797864e-05) (0.000000e+00 0.000000e+00 0.000000e+00))
0.6           	((5.413000e-04 -9.983189e-01 -6.381152e-22) (4.306493e-04 2.244196e-04 -1.186168e-21) (0.000000e+00 0.000000e+00 0.000000e+00)) ((4.991594e-03 2.706500e-06 3.327696e-01) (-1.122098e-06 2.153246e-06 -9.847968e-05) (0.000000e+00 0.000000e+00 0.000000e+00))
0.65          	((5.434369e-04 -9.981174e-01 -6.412228e-22) (4.321533e-04 2.256284e-04 -1.185558e-21) (0.000000e+00 0.000000e+00 0.000000e+00)) ((4.990587e-03 2.717185e-06 3.327025e-01) (-1.128142e-06 2.160766e-06 -9.896711e-05) (0.000000e+00 0.000000e+00 0.000000e+00))
0.7           	((5.454166e-04 -9.979311e-01 -6.440047e-22) (4.335927e-04 2.267626e-04 -1.184972e-21) (0.000000e+00 0.000000e+00 0.000000e+00)) ((4.989656e-03 2.727083e-06 3.326404e-01) (-1.133813e-06 2.167963e-06 -9.942469e-05) (0.000000e+00 0.000000e+00 0.000000e+00))
0.75          	((5.473688e-04 -9.977577e-01 -6.466435e-22) (4.349888e-04 2.278220e-04 -1.184413e-21) (0.000000e+00 0.000000e+00 0.000000e+00)) ((4.988789e-03 2.736844e-06 3.325826e-01) (-1.139110e-06 2.174944e-06 -9.985416e-05) (0.000000e+00 0.000000e+00 0.000000e+00))
0.8           	((5.493301e-04 -9.975942e-01 -6.492225e-22) (4.363726e-04 2.288247e-04 -1.183876e-21) (0.000000e+00 0.000000e+00 0.000000e+00)) ((4.987971e-03 2.746651e-06 3.325281e-01) (-1.144124e-06 2.181863e-06 -1.002637e-04) (0.000000e+00 0.000000e+00 0.000000e+00))
0.85          	((5.513244e-04 -9.974384e-01 -6.517940e-22) (4.377613e-04 2.297888e-04 -1.183356e-21) (0.000000e+00 0.000000e+00 0.000000e+00)) ((4.987192e-03 2.756622e-06 3.324761e-01) (-1.148944e-06 2.188806e-06 -1.006604e-04) (0.000000e+00 0.000000e+00 0.000000e+00))
0.9           	((5.533546e-04 -9.972884e-01 -6.543736e-22) (4.391622e-04 2.307267e-04 -1.182847e-21) (0.000000e+00 0.000000e+00 0.000000e+00)) ((4.986442e-03 2.766773e-06 3.324261e-01) (-1.153634e-06 2.195811e-06 -1.010489e-04) (0.000000e+00 0.000000e+00 0.000000e+00))
0.95          	((5.554232e-04 -9.971428e-01 -6.569708e-22) (4.405792e-04 2.316473e-04 -1.182346e-21) (0.000000e+00 0.000000e+00 0.000000e+00)) ((4.985714e-03 2.777116e-06 3.323776e-01) (-1.158236e-06 2.202896e-06 -1.014325e-04) (0.000000e+00 0.000000e+00 0.000000e+00))
1             	((5.575322e-04 -9.970003e-01 -6.595939e-22) (4.420145e-04 2.325573e-04 -1.181850e-21) (0.000000e+00 0.000000e+00 0.000000e+00)) ((4.985001e-03 2.787661e-06 3.323301e-01) (-1.162786e-06 2.210073e-06 -1.018134e-04) (0.000000e+00 0.000000e+00 0.000000e+00))
1.05          	((5.596463e-04 -9.968599e-01 -6.622165e-22) (4.434699e-04 2.334626e-04 -1.181357e-21) (0.000000e+00 0.000000e+00 0.000000e+00)) ((4.984300e-03 2.798232e-06 3.322833e-01) (-1.167313e-06 2.217350e-06 -1.021939e-04) (0.000000e+00 0.000000e+00 0.000000e+00))
1.1           	((5.618359e-04 -9.967206e-01 -6.649112e-22) (4.449457e-04 2.343677e-04 -1.180862e-21) (0.000000e+00 0.000000e+00 0.000000e+00)) ((4.983603e-03 2.809180e-06 3.322369e-01) (-1.171839e-06 2.224728e-06 -1.025754e-04) (0.000000e+00 0.000000e+00 0.000000e+00))
1.15          	((5.640482e-04 -9.965819e-01 -6.676261e-22) (4.464408e-04 2.352761e-04 -1.180366e-21) (0.000000e+00 0.000000e+00 0.000000e+00)) ((4.982909e-03 2.820241e-06 3.321906e-01) (-1.176380e-06 2.232204e-06 -1.029589e-04) (0.000000e+00 0.000000e+00 0.000000e+00))
1.2           	((5.663218e-04 -9.964434e-01 -6.703995e-22) (4.479539e-04 2.361896e-04 -1.179868e-21) (0.000000e+00 0.000000e+00 0.000000e+00)) ((4.982217e-03 2.831609e-06 3.321445e-01) (-1.180948e-06 2.239769e-06 -1.033452e-04) (0.000000e+00 0.000000e+00 0.000000e+00))
1.25          	((5.686411e-04 -9.963047e-01 -6.732222e-22) (4.494825e-04 2.371090e-04 -1.179366e-21) (0.000000e+00 0.000000e+00 0.000000e+00)) ((4.981524e-03 2.843206e-06 3.320983e-01) (-1.185545e-06 2.247413e-06 -1.037343e-04) (0.000000e+00 0.000000e+00 0.000000e+00))
1.3           	((5.709376e-04 -9.961659e-01 -6.760317e-22) (4.510258e-04 2.380351e-04 -1.178862e-21) (0.000000e+00 0.000000e+00 0.000000e+00)) ((4.980830e-03 2.854688e-06 3.320520e-01) (-1.190176e-06 2.255129e-06 -1.041263e-04) (0.000000e+00 0.000000e+00 0.000000e+00))
1.35          	((5.732152e-04 -9.960273e-01 -6.788246e-22) (4.525831e-04 2.389682e-04 -1.178356e-21) (0.000000e+00 0.000000e+00 0.000000e+00)) ((4.980136e-03 2.866076e-06 3.320058e-01) (-1.194841e-06 2.262916e-06 -1.045215e-04) (0.000000e+00 0.000000e+00 0.000000e+00))
1.4           	((5.755216e-04 -9.958883e-01 -6.816504e-22) (4.541536e-04 2.399086e-04 -1.177848e-21) (0.000000e+00 0.000000e+00 0.000000e+00)) ((4.979441e-03 2.877608e-06 3.319594e-01) (-1.199543e-06 2.270768e-06 -1.049198e-04) (0.000000e+00 0.000000e+00 0.000000e+00))
1.45          	((5.779243e-04 -9.957486e-01 -6.845715e-22) (4.557371e-04 2.408564e-04 -1.177334e-21) (0.000000e+00 0.000000e+00 0.000000e+00)) ((4.978743e-03 2.889622e-06 3.319129e-01) (-1.204282e-06 2.278686e-06 -1.053213e-04) (0.000000e+00 0.000000e+00 0.000000e+00))
1.5           	((5.802990e-04 -9.956087e-01 -6.874763e-22) (4.573332e-04 2.418119e-04 -1.176819e-21) (0.000000e+00 0.000000e+00 0.000000e+00)) ((4.978043e-03 2.901495e-06 3.318662e-01) (-1.209059e-06 2.286666e-06 -1.057260e-04) (0.000000e+00 0.000000e+00 0.000000e+00))
