/*--------------------------------*- C++ -*----------------------------------*\
  =========                 |
  \\      /  F ield         | OpenFOAM: The Open Source CFD Toolbox
   \\    /   O peration     | Website:  https://openfoam.org
    \\  /    A nd           | Version:  6
     \\/     M anipulation  |
\*---------------------------------------------------------------------------*/
FoamFile
{
    version     2.0;
    format      ascii;
    class       volScalarField;
    location    "1.1";
    object      p;
}
// * * * * * * * * * * * * * * * * * * * * * * * * * * * * * * * * * * * * * //

dimensions      [0 2 -2 0 0 0 0];

internalField   nonuniform List<scalar> 
5600
(
995.235
996.504
997.501
997.521
997.411
997.396
997.412
997.423
997.428
997.435
997.443
997.451
997.46
997.47
997.481
997.493
997.507
997.521
997.538
997.556
995.178
996.528
997.521
997.521
997.409
997.396
997.413
997.422
997.428
997.434
997.442
997.45
997.459
997.469
997.48
997.492
997.505
997.52
997.536
997.554
995.146
996.536
997.529
997.52
997.407
997.395
997.412
997.421
997.426
997.432
997.439
997.447
997.456
997.466
997.476
997.488
997.501
997.514
997.53
997.546
995.11
996.538
997.535
997.52
997.405
997.393
997.409
997.418
997.423
997.428
997.435
997.443
997.451
997.46
997.469
997.48
997.492
997.504
997.518
997.532
995.068
996.541
997.542
997.518
997.402
997.39
997.406
997.414
997.418
997.423
997.429
997.436
997.443
997.451
997.46
997.469
997.479
997.49
997.501
997.512
995.019
996.543
997.549
997.517
997.397
997.386
997.402
997.409
997.412
997.416
997.421
997.427
997.433
997.44
997.447
997.455
997.463
997.471
997.48
997.488
994.967
996.548
997.558
997.514
997.392
997.381
997.396
997.402
997.404
997.407
997.412
997.416
997.421
997.427
997.432
997.438
997.444
997.449
997.455
997.459
994.91
996.556
997.569
997.51
997.385
997.375
997.389
997.394
997.395
997.397
997.4
997.404
997.408
997.411
997.415
997.419
997.422
997.425
997.426
997.427
994.843
996.571
997.581
997.503
997.376
997.368
997.382
997.385
997.385
997.386
997.388
997.391
997.393
997.395
997.397
997.398
997.399
997.398
997.397
997.393
994.71
996.621
997.601
997.485
997.362
997.36
997.373
997.374
997.374
997.374
997.375
997.377
997.378
997.378
997.378
997.378
997.376
997.372
997.367
997.358
997.579
997.609
997.644
997.684
997.73
997.783
997.842
997.907
997.979
998.151
997.576
997.605
997.639
997.678
997.723
997.774
997.831
997.894
997.961
998.132
997.566
997.594
997.627
997.664
997.707
997.754
997.808
997.866
997.928
998.095
997.549
997.574
997.605
997.64
997.679
997.723
997.771
997.823
997.88
998.037
997.524
997.547
997.575
997.607
997.642
997.68
997.722
997.767
997.816
997.962
997.494
997.513
997.538
997.566
997.596
997.628
997.663
997.7
997.739
997.871
997.459
997.474
997.496
997.519
997.544
997.57
997.596
997.623
997.652
997.766
997.42
997.431
997.45
997.468
997.487
997.506
997.524
997.541
997.558
997.652
997.378
997.386
997.401
997.415
997.427
997.439
997.449
997.457
997.462
997.533
997.336
997.341
997.353
997.361
997.367
997.371
997.372
997.369
997.361
997.407
997.299
997.307
997.312
997.313
997.31
997.301
997.284
997.258
997.229
997.263
997.26
997.264
997.262
997.257
997.246
997.228
997.199
997.162
997.121
997.135
997.217
997.216
997.209
997.197
997.179
997.153
997.116
997.071
997.023
997.014
997.172
997.167
997.154
997.136
997.111
997.077
997.034
996.981
996.928
996.898
997.127
997.116
997.098
997.075
997.044
997.004
996.954
996.896
996.837
996.789
997.08
997.065
997.043
997.015
996.979
996.934
996.879
996.817
996.755
996.691
997.036
997.016
996.99
996.959
996.919
996.87
996.812
996.747
996.683
996.605
996.993
996.97
996.941
996.906
996.864
996.812
996.753
996.687
996.622
996.532
996.953
996.928
996.897
996.86
996.816
996.763
996.703
996.638
996.573
996.472
996.917
996.89
996.858
996.819
996.775
996.722
996.663
996.598
996.532
996.423
997.294
997.254
997.212
997.17
997.127
997.084
997.043
997.004
996.968
996.935
997.281
997.242
997.203
997.164
997.124
997.085
997.047
997.012
996.978
996.948
997.265
997.228
997.191
997.156
997.12
997.085
997.05
997.018
996.988
996.96
997.25
997.216
997.182
997.149
997.116
997.084
997.053
997.023
996.996
996.97
997.237
997.205
997.174
997.144
997.114
997.084
997.056
997.029
997.003
996.979
997.225
997.196
997.167
997.139
997.111
997.084
997.058
997.033
997.009
996.987
997.215
997.187
997.16
997.135
997.109
997.084
997.06
997.037
997.015
996.994
997.205
997.18
997.155
997.131
997.108
997.085
997.062
997.041
997.02
997
997.197
997.173
997.15
997.128
997.106
997.085
997.064
997.044
997.025
997.006
997.189
997.167
997.146
997.125
997.105
997.085
997.065
997.047
997.029
997.011
997.182
997.162
997.142
997.123
997.104
997.085
997.067
997.049
997.032
997.015
997.176
997.157
997.138
997.12
997.103
997.085
997.068
997.051
997.035
997.02
997.17
997.152
997.135
997.118
997.102
997.085
997.069
997.054
997.038
997.023
997.165
997.148
997.132
997.116
997.101
997.085
997.07
997.055
997.041
997.027
997.16
997.145
997.13
997.115
997.1
997.085
997.071
997.057
997.043
997.03
997.156
997.141
997.127
997.113
997.099
997.085
997.072
997.059
997.046
997.033
997.152
997.138
997.125
997.112
997.098
997.085
997.073
997.06
997.048
997.035
997.149
997.136
997.123
997.11
997.098
997.085
997.073
997.061
997.049
997.038
997.145
997.133
997.121
997.109
997.097
997.085
997.074
997.062
997.051
997.04
997.142
997.131
997.119
997.108
997.097
997.085
997.074
997.063
997.053
997.042
997.139
997.128
997.118
997.107
997.096
997.085
997.075
997.064
997.054
997.044
997.137
997.126
997.116
997.106
997.095
997.085
997.075
997.065
997.055
997.045
997.134
997.124
997.115
997.105
997.095
997.085
997.075
997.066
997.056
997.047
997.132
997.123
997.113
997.104
997.094
997.085
997.076
997.066
997.057
997.048
997.13
997.121
997.112
997.103
997.094
997.085
997.076
997.067
997.058
997.049
997.128
997.119
997.111
997.102
997.094
997.085
997.076
997.068
997.059
997.051
997.126
997.118
997.11
997.101
997.093
997.085
997.076
997.068
997.06
997.052
997.125
997.117
997.109
997.101
997.093
997.085
997.076
997.068
997.06
997.052
997.123
997.115
997.108
997.1
997.092
997.084
997.077
997.069
997.061
997.053
997.122
997.114
997.107
997.099
997.092
997.084
997.077
997.069
997.062
997.054
997.12
997.113
997.106
997.099
997.091
997.084
997.077
997.069
997.062
997.055
997.119
997.112
997.105
997.098
997.091
997.084
997.077
997.07
997.063
997.056
997.118
997.111
997.104
997.098
997.091
997.084
997.077
997.07
997.063
997.056
997.117
997.11
997.104
997.097
997.09
997.084
997.077
997.07
997.063
997.057
997.116
997.109
997.103
997.097
997.09
997.084
997.077
997.07
997.064
997.057
997.115
997.109
997.103
997.096
997.09
997.083
997.077
997.071
997.064
997.058
997.114
997.108
997.102
997.096
997.09
997.083
997.077
997.071
997.064
997.058
997.113
997.107
997.101
997.095
997.089
997.083
997.077
997.071
997.065
997.058
997.112
997.107
997.101
997.095
997.089
997.083
997.077
997.071
997.065
997.059
997.112
997.106
997.101
997.095
997.089
997.083
997.077
997.071
997.065
997.059
997.111
997.106
997.1
997.094
997.089
997.083
997.077
997.071
997.065
997.059
997.111
997.105
997.1
997.094
997.089
997.083
997.077
997.071
997.065
997.059
997.11
997.105
997.099
997.094
997.088
997.083
997.077
997.071
997.065
997.06
997.11
997.104
997.099
997.094
997.088
997.083
997.077
997.071
997.066
997.06
997.109
997.104
997.099
997.094
997.088
997.083
997.077
997.071
997.066
997.06
997.109
997.104
997.099
997.093
997.088
997.082
997.077
997.071
997.066
997.06
997.109
997.104
997.099
997.093
997.088
997.082
997.077
997.071
997.066
997.06
997.109
997.104
997.098
997.093
997.088
997.082
997.077
997.071
997.066
997.06
997.108
997.103
997.098
997.093
997.088
997.082
997.077
997.071
997.066
997.06
997.108
997.103
997.098
997.093
997.088
997.082
997.077
997.071
997.066
997.06
994.433
996.768
997.643
997.447
997.343
997.354
997.363
997.362
997.36
997.36
997.359
997.359
997.358
997.356
997.354
997.35
997.345
997.337
997.326
997.309
994.31
996.818
997.645
997.422
997.333
997.348
997.355
997.353
997.351
997.35
997.349
997.347
997.345
997.343
997.339
997.334
997.328
997.319
997.308
997.291
994.26
996.819
997.634
997.407
997.323
997.341
997.347
997.344
997.342
997.34
997.339
997.336
997.334
997.331
997.326
997.321
997.314
997.305
997.293
997.278
994.231
996.811
997.626
997.396
997.314
997.332
997.338
997.335
997.332
997.331
997.328
997.326
997.323
997.319
997.314
997.308
997.3
997.291
997.279
997.264
994.209
996.803
997.619
997.386
997.305
997.324
997.33
997.326
997.323
997.321
997.318
997.315
997.312
997.307
997.302
997.295
997.287
997.277
997.266
997.252
994.19
996.795
997.612
997.377
997.296
997.315
997.321
997.317
997.314
997.312
997.309
997.305
997.301
997.296
997.29
997.283
997.275
997.265
997.254
997.24
994.173
996.786
997.604
997.369
997.288
997.307
997.313
997.309
997.305
997.303
997.299
997.296
997.291
997.286
997.28
997.273
997.264
997.254
997.243
997.23
994.156
996.777
997.597
997.361
997.279
997.299
997.304
997.3
997.297
997.294
997.29
997.286
997.282
997.276
997.27
997.262
997.254
997.244
997.233
997.22
994.139
996.768
997.59
997.353
997.271
997.291
997.296
997.292
997.288
997.285
997.282
997.277
997.273
997.267
997.26
997.253
997.245
997.235
997.224
997.212
994.122
996.759
997.584
997.345
997.264
997.283
997.289
997.284
997.28
997.277
997.273
997.269
997.264
997.258
997.252
997.244
997.236
997.226
997.216
997.204
994.106
996.751
997.577
997.338
997.256
997.275
997.281
997.276
997.273
997.269
997.265
997.261
997.256
997.25
997.243
997.236
997.228
997.218
997.208
997.197
994.09
996.743
997.571
997.331
997.249
997.268
997.274
997.269
997.265
997.262
997.258
997.253
997.248
997.242
997.236
997.228
997.22
997.211
997.201
997.19
994.075
996.735
997.565
997.324
997.242
997.261
997.267
997.262
997.258
997.254
997.25
997.246
997.241
997.235
997.228
997.221
997.213
997.204
997.195
997.184
994.06
996.727
997.559
997.318
997.235
997.254
997.26
997.255
997.251
997.248
997.243
997.239
997.234
997.228
997.221
997.214
997.207
997.198
997.189
997.179
994.045
996.719
997.553
997.311
997.228
997.248
997.253
997.248
997.244
997.241
997.237
997.232
997.227
997.221
997.215
997.208
997.2
997.192
997.183
997.173
994.031
996.712
997.548
997.305
997.222
997.241
997.247
997.242
997.238
997.235
997.231
997.226
997.221
997.215
997.209
997.202
997.195
997.187
997.178
997.169
994.018
996.705
997.542
997.299
997.216
997.235
997.241
997.236
997.232
997.228
997.224
997.22
997.215
997.209
997.203
997.197
997.189
997.182
997.173
997.164
994.005
996.698
997.537
997.293
997.21
997.229
997.235
997.23
997.226
997.223
997.219
997.214
997.209
997.204
997.198
997.191
997.184
997.177
997.169
997.16
993.992
996.692
997.532
997.288
997.204
997.224
997.229
997.225
997.221
997.217
997.213
997.209
997.204
997.199
997.193
997.187
997.18
997.172
997.165
997.157
993.98
996.686
997.528
997.283
997.199
997.218
997.224
997.219
997.215
997.212
997.208
997.204
997.199
997.194
997.188
997.182
997.175
997.168
997.161
997.153
993.968
996.68
997.523
997.278
997.194
997.213
997.219
997.214
997.21
997.207
997.203
997.199
997.194
997.189
997.184
997.178
997.171
997.165
997.157
997.15
993.957
996.674
997.519
997.273
997.189
997.208
997.214
997.209
997.206
997.202
997.199
997.194
997.19
997.185
997.179
997.174
997.168
997.161
997.154
997.147
993.947
996.668
997.515
997.268
997.184
997.204
997.21
997.205
997.201
997.198
997.194
997.19
997.186
997.181
997.176
997.17
997.164
997.158
997.151
997.144
993.937
996.663
997.511
997.264
997.179
997.199
997.205
997.201
997.197
997.194
997.19
997.186
997.182
997.177
997.172
997.166
997.161
997.154
997.148
997.141
993.927
996.658
997.507
997.26
997.175
997.195
997.201
997.196
997.193
997.19
997.186
997.182
997.178
997.173
997.168
997.163
997.157
997.152
997.145
997.139
993.918
996.653
997.503
997.256
997.171
997.191
997.197
997.192
997.189
997.186
997.182
997.179
997.174
997.17
997.165
997.16
997.155
997.149
997.143
997.136
993.909
996.649
997.5
997.252
997.167
997.187
997.193
997.189
997.185
997.182
997.179
997.175
997.171
997.167
997.162
997.157
997.152
997.146
997.14
997.134
993.901
996.645
997.497
997.248
997.164
997.184
997.19
997.185
997.182
997.179
997.176
997.172
997.168
997.164
997.159
997.154
997.149
997.144
997.138
997.132
993.893
996.641
997.493
997.245
997.16
997.18
997.186
997.182
997.178
997.176
997.172
997.169
997.165
997.161
997.156
997.152
997.147
997.142
997.136
997.13
993.886
996.637
997.491
997.242
997.157
997.177
997.183
997.179
997.175
997.173
997.169
997.166
997.162
997.158
997.154
997.149
997.144
997.139
997.134
997.129
993.879
996.633
997.488
997.239
997.154
997.174
997.18
997.176
997.172
997.17
997.167
997.163
997.16
997.156
997.152
997.147
997.142
997.137
997.132
997.127
993.872
996.63
997.485
997.236
997.151
997.171
997.177
997.173
997.17
997.167
997.164
997.161
997.157
997.153
997.149
997.145
997.14
997.136
997.131
997.125
993.866
996.627
997.483
997.233
997.148
997.169
997.175
997.171
997.167
997.165
997.162
997.158
997.155
997.151
997.147
997.143
997.139
997.134
997.129
997.124
993.86
996.624
997.481
997.231
997.146
997.166
997.172
997.168
997.165
997.162
997.159
997.156
997.153
997.149
997.145
997.141
997.137
997.132
997.128
997.123
993.855
996.621
997.479
997.228
997.143
997.164
997.17
997.166
997.163
997.16
997.157
997.154
997.151
997.147
997.144
997.139
997.135
997.131
997.126
997.121
993.85
996.618
997.477
997.226
997.141
997.162
997.168
997.164
997.161
997.158
997.155
997.152
997.149
997.146
997.142
997.138
997.134
997.129
997.125
997.12
993.845
996.616
997.475
997.224
997.139
997.16
997.166
997.162
997.159
997.156
997.154
997.151
997.147
997.144
997.14
997.136
997.132
997.128
997.124
997.119
993.841
996.614
997.473
997.222
997.137
997.158
997.164
997.16
997.157
997.155
997.152
997.149
997.146
997.143
997.139
997.135
997.131
997.127
997.123
997.118
993.837
996.611
997.472
997.221
997.135
997.156
997.163
997.159
997.155
997.153
997.151
997.148
997.144
997.141
997.138
997.134
997.13
997.126
997.122
997.117
993.833
996.61
997.47
997.219
997.134
997.154
997.161
997.157
997.154
997.152
997.149
997.146
997.143
997.14
997.137
997.133
997.129
997.125
997.121
997.117
993.83
996.608
997.469
997.218
997.132
997.153
997.16
997.156
997.153
997.15
997.148
997.145
997.142
997.139
997.135
997.132
997.128
997.124
997.12
997.116
993.827
996.606
997.468
997.216
997.131
997.152
997.158
997.155
997.152
997.149
997.147
997.144
997.141
997.138
997.135
997.131
997.127
997.123
997.119
997.115
993.824
996.605
997.467
997.215
997.13
997.151
997.157
997.153
997.151
997.148
997.146
997.143
997.14
997.137
997.134
997.13
997.127
997.123
997.119
997.115
993.822
996.604
997.466
997.215
997.129
997.15
997.157
997.153
997.15
997.147
997.145
997.142
997.139
997.136
997.133
997.13
997.126
997.122
997.118
997.114
993.82
996.602
997.465
997.214
997.128
997.149
997.156
997.152
997.149
997.147
997.144
997.142
997.139
997.136
997.132
997.129
997.125
997.122
997.118
997.114
993.819
996.601
997.464
997.213
997.128
997.149
997.155
997.151
997.148
997.146
997.144
997.141
997.138
997.135
997.132
997.129
997.125
997.121
997.117
997.113
993.819
996.599
997.464
997.213
997.127
997.148
997.155
997.151
997.148
997.146
997.143
997.141
997.138
997.135
997.131
997.128
997.125
997.121
997.117
997.113
993.824
996.597
997.464
997.214
997.127
997.147
997.154
997.15
997.147
997.145
997.143
997.14
997.137
997.134
997.131
997.128
997.124
997.121
997.117
997.113
993.846
996.583
997.463
997.218
997.127
997.147
997.154
997.15
997.147
997.145
997.143
997.14
997.137
997.134
997.131
997.128
997.124
997.121
997.117
997.113
993.926
996.531
997.453
997.226
997.128
997.145
997.154
997.15
997.147
997.145
997.143
997.14
997.137
997.134
997.131
997.128
997.124
997.12
997.117
997.113
996.769
996.733
996.701
996.672
996.642
996.609
996.574
996.537
996.499
996.431
996.773
996.738
996.705
996.676
996.646
996.615
996.582
996.547
996.511
996.451
996.767
996.737
996.707
996.681
996.653
996.623
996.592
996.559
996.527
996.474
996.761
996.735
996.707
996.683
996.657
996.63
996.601
996.571
996.541
996.497
996.755
996.733
996.708
996.685
996.661
996.635
996.608
996.581
996.554
996.52
996.75
996.731
996.708
996.687
996.665
996.641
996.616
996.59
996.567
996.54
996.746
996.729
996.709
996.69
996.668
996.646
996.622
996.599
996.577
996.558
996.744
996.729
996.711
996.692
996.671
996.65
996.627
996.605
996.586
996.572
996.743
996.729
996.712
996.694
996.674
996.653
996.631
996.61
996.592
996.581
996.744
996.729
996.713
996.695
996.676
996.655
996.633
996.612
996.594
996.586
996.753
996.762
996.771
996.78
996.789
996.797
996.805
996.813
996.821
996.829
996.836
996.843
996.85
996.857
996.863
996.869
996.875
996.881
996.886
996.892
996.896
996.901
996.906
996.91
996.914
996.918
996.922
996.926
996.93
996.933
996.936
996.94
996.943
996.946
996.949
996.952
996.954
996.957
996.96
996.963
996.965
996.968
996.971
996.974
996.977
996.98
996.983
996.986
996.99
996.993
996.75
996.758
996.768
996.777
996.786
996.795
996.803
996.812
996.82
996.827
996.835
996.842
996.849
996.856
996.862
996.868
996.874
996.88
996.885
996.891
996.896
996.901
996.905
996.91
996.914
996.918
996.922
996.926
996.929
996.933
996.936
996.939
996.942
996.945
996.948
996.951
996.954
996.957
996.96
996.962
996.965
996.968
996.971
996.973
996.976
996.979
996.982
996.986
996.989
996.993
996.745
996.754
996.764
996.774
996.783
996.792
996.801
996.809
996.818
996.825
996.833
996.84
996.847
996.854
996.861
996.867
996.873
996.879
996.884
996.89
996.895
996.9
996.904
996.909
996.913
996.917
996.921
996.925
996.929
996.932
996.935
996.939
996.942
996.945
996.948
996.951
996.954
996.956
996.959
996.962
996.965
996.967
996.97
996.973
996.975
996.978
996.981
996.984
996.988
996.991
996.74
996.748
996.76
996.771
996.78
996.79
996.799
996.807
996.816
996.824
996.831
996.839
996.846
996.853
996.86
996.866
996.872
996.878
996.883
996.889
996.894
996.899
996.904
996.908
996.912
996.917
996.92
996.924
996.928
996.931
996.935
996.938
996.941
996.944
996.947
996.95
996.953
996.956
996.958
996.961
996.964
996.966
996.969
996.972
996.974
996.977
996.98
996.983
996.986
996.989
996.735
996.742
996.756
996.767
996.777
996.787
996.796
996.805
996.814
996.822
996.83
996.837
996.845
996.852
996.858
996.865
996.871
996.877
996.882
996.888
996.893
996.898
996.903
996.907
996.912
996.916
996.92
996.924
996.927
996.931
996.934
996.937
996.941
996.944
996.947
996.949
996.952
996.955
996.958
996.96
996.963
996.965
996.968
996.97
996.973
996.975
996.978
996.98
996.983
996.986
996.73
996.736
996.751
996.764
996.774
996.784
996.794
996.803
996.812
996.82
996.828
996.836
996.843
996.85
996.857
996.864
996.87
996.876
996.881
996.887
996.892
996.897
996.902
996.906
996.911
996.915
996.919
996.923
996.926
996.93
996.933
996.937
996.94
996.943
996.946
996.948
996.951
996.954
996.956
996.959
996.961
996.964
996.966
996.968
996.971
996.973
996.975
996.978
996.98
996.982
996.726
996.731
996.748
996.761
996.772
996.782
996.792
996.802
996.811
996.819
996.827
996.835
996.842
996.85
996.856
996.863
996.869
996.875
996.881
996.886
996.891
996.896
996.901
996.906
996.91
996.914
996.918
996.922
996.926
996.929
996.932
996.936
996.939
996.942
996.945
996.947
996.95
996.953
996.955
996.957
996.96
996.962
996.964
996.966
996.968
996.97
996.972
996.974
996.976
996.978
996.723
996.727
996.746
996.76
996.771
996.782
996.792
996.801
996.81
996.819
996.827
996.835
996.842
996.849
996.856
996.862
996.868
996.874
996.88
996.885
996.891
996.895
996.9
996.905
996.909
996.913
996.917
996.921
996.925
996.928
996.931
996.935
996.938
996.941
996.943
996.946
996.949
996.951
996.954
996.956
996.958
996.96
996.962
996.964
996.966
996.968
996.969
996.971
996.972
996.974
996.721
996.727
996.747
996.761
996.772
996.782
996.792
996.802
996.811
996.819
996.827
996.835
996.842
996.849
996.855
996.862
996.868
996.874
996.879
996.885
996.89
996.895
996.899
996.904
996.908
996.912
996.916
996.92
996.924
996.927
996.93
996.933
996.936
996.939
996.942
996.945
996.947
996.949
996.952
996.954
996.956
996.958
996.96
996.961
996.963
996.964
996.966
996.967
996.968
996.969
996.722
996.734
996.753
996.766
996.777
996.787
996.796
996.805
996.814
996.821
996.829
996.836
996.843
996.85
996.856
996.862
996.868
996.874
996.879
996.885
996.89
996.894
996.899
996.903
996.907
996.912
996.915
996.919
996.923
996.926
996.929
996.932
996.935
996.938
996.941
996.943
996.945
996.948
996.95
996.952
996.954
996.955
996.957
996.959
996.96
996.961
996.962
996.963
996.964
996.964
996.776
996.77
996.771
996.777
996.785
996.793
996.801
996.809
996.817
996.824
996.832
996.839
996.845
996.852
996.858
996.864
996.87
996.875
996.88
996.885
996.89
996.895
996.899
996.904
996.908
996.912
996.916
996.919
996.923
996.926
996.929
996.932
996.935
996.937
996.94
996.942
996.945
996.947
996.949
996.95
996.952
996.954
996.955
996.956
996.957
996.958
996.959
996.959
996.96
996.96
996.789
996.786
996.785
996.789
996.795
996.802
996.809
996.816
996.823
996.829
996.836
996.842
996.849
996.855
996.861
996.866
996.872
996.877
996.882
996.887
996.892
996.896
996.9
996.904
996.908
996.912
996.916
996.919
996.922
996.926
996.929
996.931
996.934
996.937
996.939
996.941
996.944
996.946
996.947
996.949
996.951
996.952
996.953
996.954
996.955
996.956
996.956
996.957
996.957
996.956
996.797
996.798
996.797
996.8
996.805
996.811
996.817
996.823
996.829
996.835
996.841
996.847
996.853
996.858
996.864
996.869
996.874
996.879
996.884
996.888
996.893
996.897
996.901
996.905
996.909
996.913
996.916
996.919
996.922
996.925
996.928
996.931
996.934
996.936
996.938
996.94
996.942
996.944
996.946
996.948
996.949
996.95
996.951
996.952
996.953
996.953
996.954
996.954
996.953
996.953
996.806
996.808
996.808
996.81
996.815
996.819
996.824
996.83
996.835
996.841
996.846
996.851
996.857
996.862
996.867
996.872
996.877
996.881
996.886
996.89
996.894
996.898
996.902
996.906
996.91
996.913
996.916
996.92
996.923
996.925
996.928
996.931
996.933
996.935
996.938
996.94
996.941
996.943
996.945
996.946
996.947
996.949
996.949
996.95
996.951
996.951
996.951
996.951
996.95
996.95
996.815
996.818
996.818
996.82
996.824
996.828
996.832
996.837
996.842
996.846
996.851
996.856
996.861
996.866
996.87
996.875
996.88
996.884
996.888
996.892
996.896
996.9
996.904
996.907
996.91
996.914
996.917
996.92
996.923
996.925
996.928
996.93
996.933
996.935
996.937
996.939
996.94
996.942
996.943
996.945
996.946
996.947
996.948
996.948
996.948
996.949
996.948
996.948
996.947
996.946
996.825
996.827
996.828
996.83
996.833
996.836
996.84
996.844
996.848
996.852
996.857
996.861
996.866
996.87
996.874
996.878
996.882
996.886
996.89
996.894
996.898
996.901
996.905
996.908
996.911
996.914
996.917
996.92
996.923
996.925
996.928
996.93
996.932
996.934
996.936
996.938
996.939
996.941
996.942
996.943
996.944
996.945
996.946
996.946
996.946
996.946
996.946
996.945
996.944
996.943
996.835
996.837
996.838
996.84
996.842
996.845
996.848
996.851
996.855
996.859
996.862
996.866
996.87
996.874
996.878
996.882
996.885
996.889
996.893
996.896
996.9
996.903
996.906
996.909
996.912
996.915
996.918
996.92
996.923
996.925
996.928
996.93
996.932
996.934
996.935
996.937
996.938
996.94
996.941
996.942
996.943
996.943
996.944
996.944
996.944
996.944
996.944
996.943
996.942
996.94
996.846
996.846
996.847
996.849
996.851
996.853
996.856
996.858
996.861
996.865
996.868
996.871
996.875
996.878
996.882
996.885
996.889
996.892
996.895
996.898
996.902
996.905
996.908
996.91
996.913
996.916
996.918
996.921
996.923
996.925
996.928
996.93
996.931
996.933
996.935
996.936
996.938
996.939
996.94
996.941
996.941
996.942
996.942
996.942
996.942
996.942
996.941
996.94
996.939
996.938
996.856
996.856
996.857
996.858
996.859
996.861
996.863
996.865
996.868
996.871
996.873
996.876
996.879
996.882
996.886
996.889
996.892
996.895
996.898
996.901
996.904
996.906
996.909
996.912
996.914
996.917
996.919
996.921
996.924
996.926
996.928
996.929
996.931
996.933
996.934
996.936
996.937
996.938
996.939
996.939
996.94
996.94
996.941
996.941
996.94
996.94
996.939
996.938
996.937
996.935
996.866
996.865
996.866
996.867
996.868
996.869
996.87
996.872
996.874
996.877
996.879
996.882
996.884
996.887
996.89
996.892
996.895
996.898
996.9
996.903
996.906
996.908
996.911
996.913
996.915
996.918
996.92
996.922
996.924
996.926
996.928
996.929
996.931
996.932
996.934
996.935
996.936
996.937
996.938
996.938
996.939
996.939
996.939
996.939
996.939
996.938
996.937
996.936
996.935
996.933
996.875
996.874
996.875
996.875
996.876
996.876
996.878
996.879
996.881
996.883
996.884
996.887
996.889
996.891
996.893
996.896
996.898
996.901
996.903
996.905
996.908
996.91
996.912
996.915
996.917
996.919
996.921
996.923
996.924
996.926
996.928
996.929
996.931
996.932
996.933
996.934
996.935
996.936
996.937
996.937
996.938
996.938
996.938
996.938
996.937
996.936
996.936
996.934
996.933
996.931
996.885
996.883
996.883
996.883
996.883
996.884
996.885
996.886
996.887
996.888
996.89
996.892
996.893
996.895
996.897
996.899
996.902
996.904
996.906
996.908
996.91
996.912
996.914
996.916
996.918
996.92
996.922
996.923
996.925
996.927
996.928
996.929
996.931
996.932
996.933
996.934
996.935
996.935
996.936
996.936
996.936
996.937
996.936
996.936
996.936
996.935
996.934
996.933
996.931
996.93
996.894
996.892
996.891
996.891
996.891
996.891
996.891
996.892
996.893
996.894
996.895
996.897
996.898
996.9
996.901
996.903
996.905
996.907
996.909
996.91
996.912
996.914
996.916
996.918
996.919
996.921
996.923
996.924
996.926
996.927
996.928
996.93
996.931
996.932
996.933
996.933
996.934
996.935
996.935
996.935
996.936
996.936
996.935
996.935
996.934
996.934
996.933
996.932
996.93
996.928
996.902
996.9
996.899
996.899
996.898
996.898
996.898
996.898
996.899
996.899
996.9
996.901
996.902
996.904
996.905
996.907
996.908
996.91
996.911
996.913
996.914
996.916
996.918
996.919
996.921
996.922
996.924
996.925
996.926
996.927
996.929
996.93
996.931
996.932
996.932
996.933
996.934
996.934
996.934
996.935
996.935
996.935
996.934
996.934
996.933
996.933
996.932
996.93
996.929
996.927
996.91
996.908
996.907
996.906
996.905
996.904
996.904
996.904
996.904
996.905
996.905
996.906
996.907
996.908
996.909
996.91
996.911
996.913
996.914
996.915
996.917
996.918
996.919
996.921
996.922
996.923
996.925
996.926
996.927
996.928
996.929
996.93
996.931
996.932
996.932
996.933
996.933
996.934
996.934
996.934
996.934
996.934
996.934
996.933
996.933
996.932
996.931
996.929
996.928
996.926
996.918
996.915
996.914
996.913
996.911
996.911
996.91
996.91
996.91
996.91
996.91
996.91
996.911
996.912
996.913
996.914
996.915
996.916
996.917
996.918
996.919
996.92
996.921
996.922
996.924
996.925
996.926
996.927
996.928
996.929
996.93
996.93
996.931
996.932
996.932
996.933
996.933
996.933
996.934
996.934
996.934
996.933
996.933
996.932
996.932
996.931
996.93
996.929
996.927
996.926
996.925
996.922
996.92
996.919
996.918
996.916
996.916
996.915
996.915
996.915
996.915
996.915
996.915
996.916
996.916
996.917
996.918
996.918
996.919
996.92
996.921
996.922
996.923
996.924
996.925
996.926
996.927
996.928
996.929
996.929
996.93
996.931
996.931
996.932
996.932
996.933
996.933
996.933
996.933
996.933
996.933
996.933
996.932
996.932
996.931
996.93
996.929
996.928
996.927
996.925
996.932
996.928
996.927
996.925
996.923
996.922
996.921
996.92
996.92
996.919
996.919
996.919
996.919
996.919
996.92
996.92
996.921
996.921
996.922
996.923
996.923
996.924
996.925
996.926
996.926
996.927
996.928
996.929
996.929
996.93
996.931
996.931
996.932
996.932
996.932
996.933
996.933
996.933
996.933
996.933
996.933
996.932
996.932
996.931
996.931
996.93
996.929
996.928
996.926
996.925
996.938
996.934
996.933
996.931
996.929
996.927
996.926
996.925
996.924
996.924
996.923
996.923
996.923
996.923
996.923
996.923
996.924
996.924
996.924
996.925
996.925
996.926
996.927
996.927
996.928
996.928
996.929
996.93
996.93
996.931
996.931
996.932
996.932
996.932
996.933
996.933
996.933
996.933
996.933
996.933
996.933
996.932
996.932
996.931
996.93
996.93
996.929
996.928
996.926
996.925
996.944
996.94
996.938
996.936
996.934
996.932
996.931
996.93
996.929
996.928
996.927
996.927
996.927
996.926
996.926
996.926
996.926
996.927
996.927
996.927
996.928
996.928
996.928
996.929
996.929
996.93
996.93
996.931
996.931
996.932
996.932
996.932
996.933
996.933
996.933
996.933
996.933
996.933
996.933
996.933
996.932
996.932
996.932
996.931
996.93
996.929
996.929
996.927
996.926
996.925
996.949
996.945
996.943
996.941
996.939
996.937
996.936
996.934
996.933
996.932
996.931
996.931
996.93
996.93
996.929
996.929
996.929
996.929
996.929
996.929
996.93
996.93
996.93
996.93
996.931
996.931
996.931
996.932
996.932
996.932
996.933
996.933
996.933
996.933
996.933
996.933
996.933
996.933
996.933
996.933
996.932
996.932
996.932
996.931
996.93
996.929
996.929
996.928
996.926
996.925
996.954
996.95
996.948
996.946
996.944
996.942
996.94
996.938
996.937
996.936
996.935
996.934
996.933
996.933
996.932
996.932
996.932
996.932
996.932
996.932
996.932
996.932
996.932
996.932
996.932
996.932
996.933
996.933
996.933
996.933
996.933
996.933
996.934
996.934
996.934
996.934
996.933
996.933
996.933
996.933
996.933
996.932
996.932
996.931
996.93
996.93
996.929
996.928
996.927
996.925
996.959
996.955
996.953
996.95
996.948
996.946
996.944
996.942
996.941
996.939
996.938
996.937
996.937
996.936
996.935
996.935
996.934
996.934
996.934
996.934
996.934
996.934
996.934
996.934
996.934
996.934
996.934
996.934
996.934
996.934
996.934
996.934
996.934
996.934
996.934
996.934
996.934
996.934
996.933
996.933
996.933
996.932
996.932
996.931
996.93
996.93
996.929
996.928
996.927
996.926
996.963
996.959
996.957
996.954
996.952
996.95
996.948
996.946
996.944
996.943
996.942
996.941
996.94
996.939
996.938
996.937
996.937
996.936
996.936
996.936
996.936
996.935
996.935
996.935
996.935
996.935
996.935
996.935
996.935
996.935
996.935
996.935
996.935
996.935
996.935
996.934
996.934
996.934
996.934
996.933
996.933
996.932
996.932
996.931
996.931
996.93
996.929
996.928
996.927
996.926
996.967
996.963
996.961
996.958
996.956
996.953
996.951
996.949
996.948
996.946
996.945