/*--------------------------------*- C++ -*----------------------------------*\
  =========                 |
  \\      /  F ield         | OpenFOAM: The Open Source CFD Toolbox
   \\    /   O peration     | Website:  https://openfoam.org
    \\  /    A nd           | Version:  6
     \\/     M anipulation  |
\*---------------------------------------------------------------------------*/
FoamFile
{
    version     2.0;
    format      ascii;
    class       surfaceScalarField;
    location    "1.1";
    object      phi;
}
// * * * * * * * * * * * * * * * * * * * * * * * * * * * * * * * * * * * * * //

dimensions      [0 3 -1 0 0 0 0];

internalField   nonuniform List<scalar> 
11030
(
0.000118963
3.8816e-07
0.000119055
-9.2095e-08
0.000118895
1.60464e-07
0.000118475
4.20121e-07
0.000118082
3.92646e-07
0.000117717
3.64639e-07
0.000117305
4.11774e-07
0.000116821
4.84456e-07
0.000116259
5.61724e-07
0.000115611
6.48692e-07
0.00011486
7.50188e-07
0.000113993
8.67479e-07
0.000112991
1.00175e-06
0.000111836
1.15507e-06
0.000110506
1.32995e-06
0.000108977
1.5289e-06
0.000107224
1.75374e-06
0.00010522
2.00394e-06
0.000102946
2.27349e-06
2.54127e-06
0.000100405
0.000119691
3.3413e-08
0.000119363
2.36066e-07
0.000118839
6.83911e-07
0.000118415
8.44673e-07
0.000118019
7.87857e-07
0.000117589
7.95344e-07
0.000117105
8.95307e-07
0.000116561
1.02906e-06
0.000115943
1.17964e-06
0.000115237
1.35454e-06
0.000114428
1.5592e-06
0.0001135
1.79565e-06
0.000112435
2.06658e-06
0.000111214
2.37604e-06
0.000109815
2.72885e-06
0.000108214
3.12985e-06
0.000106385
3.58245e-06
0.000104304
4.08541e-06
0.000101951
4.62656e-06
5.1681e-06
9.93239e-05
0.000119334
-2.41731e-08
0.000119186
3.8321e-07
0.000118786
1.08481e-06
0.000118336
1.29406e-06
0.000117898
1.22583e-06
0.000117431
1.2626e-06
0.000116906
1.41979e-06
0.000116315
1.62066e-06
0.000115646
1.84838e-06
0.000114887
2.11394e-06
0.000114022
2.42412e-06
0.000113036
2.78179e-06
0.000111911
3.19098e-06
0.00011063
3.65766e-06
0.00010917
4.18881e-06
0.000107508
4.79147e-06
0.00010562
5.47061e-06
0.000103481
6.22443e-06
0.000101072
7.03513e-06
7.85098e-06
9.83894e-05
0.000119179
3.11911e-09
0.000118999
5.62757e-07
0.00011862
1.46366e-06
0.000118179
1.73527e-06
0.000117731
1.67404e-06
0.000117244
1.74934e-06
0.000116692
1.97176e-06
0.000116065
2.24747e-06
0.000115355
2.55862e-06
0.00011455
2.91961e-06
0.000113635
3.33874e-06
0.000112597
3.81968e-06
0.00011142
4.36776e-06
0.000110087
4.99074e-06
0.000108578
5.69763e-06
0.000106872
6.49746e-06
0.000104946
7.39669e-06
0.000102778
8.39301e-06
0.000100349
9.46335e-06
1.05443e-05
9.76561e-05
0.000119031
1.03828e-07
0.0001188
7.9339e-07
0.000118423
1.84094e-06
0.000117991
2.1677e-06
0.000117541
2.12389e-06
0.000117042
2.24822e-06
0.000116469
2.54505e-06
0.000115812
2.90395e-06
0.000115065
3.30561e-06
0.000114217
3.76732e-06
0.000113257
4.29867e-06
0.000112173
4.90401e-06
0.000110951
5.58986e-06
0.000109576
6.36557e-06
0.000108032
7.24191e-06
0.0001063
8.22964e-06
0.00010436
9.33648e-06
0.000102193
1.05596e-05
9.9786e-05
1.18708e-05
1.31974e-05
9.71329e-05
0.000118864
2.91355e-07
0.000118581
1.07655e-06
0.000118215
2.20728e-06
0.000117799
2.58325e-06
0.000117352
2.57136e-06
0.000116842
2.75825e-06
0.000116246
3.14041e-06
0.000115559
3.59174e-06
0.000114773
4.09114e-06
0.000113882
4.65832e-06
0.000112877
5.3039e-06
0.000111748
6.03283e-06
0.000110485
6.85267e-06
0.000109077
7.77415e-06
0.000107509
8.8095e-06
0.000105768
9.97079e-06
0.000103838
1.12667e-05
0.000101704
1.26937e-05
9.9355e-05
1.42193e-05
1.57638e-05
9.67886e-05
0.000118639
6.18105e-07
0.000118312
1.40401e-06
0.000118006
2.51289e-06
0.00011763
2.9591e-06
0.000117185
3.01702e-06
0.000116657
3.28602e-06
0.000116031
3.76605e-06
0.000115303
4.31999e-06
0.00011447
4.92391e-06
0.000113529
5.59957e-06
0.000112474
6.35894e-06
0.000111299
7.20769e-06
0.000109998
8.15438e-06
0.000108561
9.21086e-06
0.00010698
1.03904e-05
0.000105245
1.1706e-05
0.000103344
1.31669e-05
0.000101269
1.47691e-05
9.90114e-05
1.64769e-05
1.82074e-05
9.65678e-05
0.000118247
1.24577e-06
0.000117919
1.73257e-06
0.000117811
2.62097e-06
0.000117511
3.25858e-06
0.000117051
3.47717e-06
0.000116487
3.84975e-06
0.000115815
4.43843e-06
0.00011503
5.10508e-06
0.000114135
5.81833e-06
0.000113133
6.60214e-06
0.000112021
7.47113e-06
0.000110796
8.43222e-06
0.000109456
9.49489e-06
0.000107995
1.06718e-05
0.000106408
1.19768e-05
0.000104691
1.34231e-05
0.000102838
1.50201e-05
0.000100843
1.67643e-05
9.8701e-05
1.86188e-05
2.05055e-05
9.64028e-05
0.000117295
2.73741e-06
0.000117334
1.69333e-06
0.00011773
2.22469e-06
0.000117484
3.50482e-06
0.000116945
4.01671e-06
0.000116312
4.48254e-06
0.000115568
5.18232e-06
0.000114703
5.96964e-06
0.000113729
6.79225e-06
0.000112653
7.67862e-06
0.000111475
8.64884e-06
0.000110196
9.71145e-06
0.000108814
1.08764e-05
0.00010733
1.21566e-05
0.000105741
1.35655e-05
0.000104048
1.51155e-05
0.000102253
1.6816e-05
0.000100352
1.86645e-05
9.83458e-05
2.06254e-05
2.26212e-05
9.62301e-05
0.000115602
5.89902e-06
0.000117218
7.71303e-08
0.000118054
1.38922e-06
0.000117565
3.99416e-06
0.000116849
4.73237e-06
0.000116103
5.22893e-06
0.000115251
6.03428e-06
0.000114284
6.93627e-06
0.000113219
7.85745e-06
0.000112062
8.83509e-06
0.000110816
9.89512e-06
0.000109481
1.1047e-05
0.000108057
1.23003e-05
0.000106547
1.36668e-05
0.000104954
1.51584e-05
0.000103284
1.67849e-05
0.000101548
1.85526e-05
9.97527e-05
2.04594e-05
9.78878e-05
2.24903e-05
9.59368e-05
2.45722e-05
8.98578e-05
1.0547e-05
7.91652e-05
1.06926e-05
6.83121e-05
1.0853e-05
5.72927e-05
1.10194e-05
4.61202e-05
1.11725e-05
3.48665e-05
1.12537e-05
2.37456e-05
1.11209e-05
1.32785e-05
1.0467e-05
4.56946e-06
8.70907e-06
4.56946e-06
8.88594e-05
2.10116e-05
7.82445e-05
2.13075e-05
6.74732e-05
2.16244e-05
5.65421e-05
2.19505e-05
4.54682e-05
2.22464e-05
3.43285e-05
2.23935e-05
2.33391e-05
2.21103e-05
1.30187e-05
2.07874e-05
4.50776e-06
1.722e-05
9.07723e-06
8.79989e-05
3.14021e-05
7.74555e-05
3.18509e-05
6.67588e-05
3.2321e-05
5.59074e-05
3.28019e-05
4.49206e-05
3.32332e-05
3.38783e-05
3.34358e-05
2.30015e-05
3.29872e-05
1.2812e-05
3.09768e-05
4.42403e-06
2.56081e-05
1.35013e-05
8.73188e-05
4.17394e-05
7.68293e-05
4.23403e-05
6.61913e-05
4.29591e-05
5.54035e-05
4.35896e-05
4.44855e-05
4.41512e-05
3.35194e-05
4.4402e-05
2.27295e-05
4.37771e-05
1.26407e-05
4.10656e-05
4.3556e-06
3.38931e-05
1.78569e-05
8.68284e-05
5.20439e-05
7.63726e-05
5.27961e-05
6.57736e-05
5.35581e-05
5.50291e-05
5.43341e-05
4.41573e-05
5.50229e-05
3.32421e-05
5.53172e-05
2.25121e-05
5.45071e-05
1.24973e-05
5.10804e-05
4.29565e-06
4.20948e-05
2.21525e-05
8.64999e-05
6.23327e-05
7.60596e-05
6.32364e-05
6.54811e-05
6.41365e-05
5.47589e-05
6.50563e-05
4.39101e-05
6.58718e-05
3.30206e-05
6.62066e-05
2.23256e-05
6.52021e-05
1.23641e-05
6.10419e-05
4.23494e-06
5.0224e-05
2.63875e-05
8.62797e-05
7.26208e-05
7.58392e-05
7.36769e-05
6.52645e-05
7.47112e-05
5.45445e-05
7.57763e-05
4.3696e-05
7.67203e-05
3.28098e-05
7.70928e-05
2.21313e-05
7.58806e-05
1.22131e-05
7.09601e-05
4.15938e-06
5.82777e-05
3.05468e-05
8.60932e-05
8.29305e-05
7.56353e-05
8.41349e-05
6.50484e-05
8.52981e-05
5.43109e-05
8.65138e-05
4.34429e-05
8.75883e-05
3.2544e-05
8.79916e-05
2.18751e-05
8.65495e-05
1.20069e-05
8.08283e-05
4.05054e-06
6.62341e-05
3.45974e-05
8.58281e-05
9.33324e-05
7.53302e-05
9.46328e-05
6.47128e-05
9.59155e-05
5.39409e-05
9.72857e-05
4.30447e-05
9.84846e-05
3.21348e-05
9.89015e-05
2.14897e-05
9.71946e-05
1.16986e-05
9.06194e-05
3.88262e-06
7.40501e-05
3.848e-05
8.52304e-05
0.000104039
7.47051e-05
0.000105158
6.4042e-05
0.000106579
5.32429e-05
0.000108085
4.23453e-05
0.000109382
3.1464e-05
0.000109783
2.08899e-05
0.000107769
1.12226e-05
0.000100287
3.60345e-06
8.16692e-05
4.20834e-05
3.26868e-05
0.000109649
-3.82973e-05
2.71067e-05
0.000110738
2.16143e-05
0.000112071
1.62585e-05
0.000113441
1.11898e-05
0.000114451
6.6725e-06
0.0001143
3.07452e-06
0.000111367
7.72902e-07
0.000102588
-8.70982e-08
8.25292e-05
4.19963e-05
2.65128e-05
0.000114688
-3.15512e-05
2.14613e-05
0.00011579
1.65062e-05
0.000117026
1.17597e-05
0.000118187
7.39118e-06
0.00011882
3.66444e-06
0.000118027
9.18161e-07
0.000114113
-5.32108e-07
0.000104039
-6.31579e-07
8.26287e-05
4.13648e-05
2.03572e-05
0.000119186
-2.48555e-05
1.58546e-05
0.000120292
1.1478e-05
0.000121403
7.36903e-06
0.000122296
3.72092e-06
0.000122468
7.99346e-07
0.000120948
-1.08576e-06
0.000115998
-1.68597e-06
0.000104639
-1.05651e-06
8.19992e-05
4.03082e-05
1.42814e-05
0.000123152
-1.82473e-05
1.0347e-05
0.000124227
6.57561e-06
0.000125174
3.12977e-06
0.000125742
2.2067e-07
0.000125377
-1.88732e-06
0.000123056
-2.9162e-06
0.000117027
-2.69203e-06
0.000104415
-1.39512e-06
8.07023e-05
3.89131e-05
8.33124e-06
0.000126584
-1.17637e-05
4.97509e-06
0.000127583
1.82924e-06
0.00012832
-9.30742e-07
0.000128502
-3.08403e-06
0.00012753
-4.37468e-06
0.000124347
-4.56365e-06
0.000117216
-3.55787e-06
0.000103409
-1.66312e-06
7.88076e-05
3.725e-05
2.53733e-06
0.000129481
-5.43351e-06
-2.32463e-07
0.000130353
-2.73695e-06
0.000130824
-4.79287e-06
0.000130558
-6.17793e-06
0.000128915
-6.65305e-06
0.000124822
-6.02622e-06
0.000116589
-4.29009e-06
0.000101673
-1.86916e-06
7.63866e-05
3.53808e-05
-3.07985e-06
0.000131836
7.24764e-07
-5.25484e-06
0.000132528
-7.10427e-06
0.000132674
-8.44164e-06
0.000131895
-9.05072e-06
0.000129524
-8.71794e-06
0.000124489
-7.30617e-06
0.000115177
-4.89649e-06
9.9263e-05
-2.02146e-06
7.35116e-05
3.33594e-05
-8.50863e-06
0.000133643
6.70151e-06
-1.00785e-05
0.000134098
-1.12593e-05
0.000133855
-1.18655e-05
0.000132501
-1.16944e-05
0.000129353
-1.05664e-05
0.000123361
-8.40663e-06
0.000113018
-5.38489e-06
9.62413e-05
-2.12736e-06
7.02541e-05
3.1232e-05
-1.37428e-05
0.000134893
1.24927e-05
-1.46934e-05
0.000135048
-1.51886e-05
0.00013435
-1.50496e-05
0.000132362
-1.40951e-05
0.000128399
-1.21894e-05
0.000121456
-9.32657e-06
0.000110155
-5.76216e-06
9.26769e-05
-2.19464e-06
6.66866e-05
2.90374e-05
-1.87722e-05
1.81027e-05
0.000135562
-1.90729e-05
0.000135349
-1.88521e-05
0.000134129
-1.79467e-05
0.000131457
-1.62085e-05
0.00012666
-1.35562e-05
0.000118803
-1.00567e-05
0.000106655
-6.03869e-06
8.86589e-05
-2.24051e-06
6.28884e-05
2.67969e-05
8.42572e-05
-3.89001e-05
-8.36544e-05
8.5084e-05
-3.23779e-05
8.61078e-05
-2.58794e-05
8.72719e-05
-1.94114e-05
8.85348e-05
-1.30266e-05
8.98487e-05
-6.74743e-06
9.11627e-05
-5.89231e-07
9.24262e-05
5.43803e-06
9.35916e-05
1.13273e-05
1.70906e-05
9.46036e-05
8.50351e-05
-3.93247e-05
-8.46106e-05
8.56515e-05
-3.29943e-05
8.64651e-05
-2.6693e-05
8.74329e-05
-2.03792e-05
8.85171e-05
-1.41108e-05
8.96768e-05
-7.90716e-06
9.08687e-05
-1.78105e-06
9.20493e-05
4.25743e-06
9.3177e-05
1.01996e-05
1.60614e-05
9.42063e-05
8.56923e-05
-3.9543e-05
-8.54739e-05
8.61206e-05
-3.34226e-05
8.67414e-05
-2.73139e-05
8.75244e-05
-2.11622e-05
8.84367e-05
-1.50231e-05
8.94441e-05
-8.91462e-06
9.05107e-05
-2.84762e-06
9.16003e-05
3.16784e-06
9.26777e-05
9.12222e-06
1.50326e-05
9.37064e-05
8.62573e-05
-3.96097e-05
-8.61906e-05
8.65227e-05
-3.36881e-05
8.69713e-05
-2.77624e-05
8.75825e-05
-2.17734e-05
8.83309e-05
-1.57714e-05
8.91893e-05
-9.77297e-06
9.01289e-05
-3.78724e-06
9.11207e-05
2.17603e-06
9.21357e-05
8.10725e-06
1.40231e-05
9.31452e-05
8.67237e-05
-3.95557e-05
-8.67777e-05
8.68525e-05
-3.38168e-05
8.71516e-05
-2.80616e-05
8.76094e-05
-2.22312e-05
8.82075e-05
-1.63696e-05
8.89256e-05
-1.0491e-05
8.97418e-05
-4.60342e-06
9.06335e-05
1.28425e-06
9.15778e-05
7.16296e-06
1.30486e-05
9.25523e-05
8.70922e-05
-3.93961e-05
-8.72517e-05
8.71034e-05
-3.38281e-05
8.72742e-05
-2.82324e-05
8.75985e-05
-2.25555e-05
8.80635e-05
-1.68345e-05
8.86545e-05
-1.1082e-05
8.93556e-05
-5.30455e-06
9.01501e-05
4.89805e-07
9.10201e-05
6.2929e-06
1.21198e-05
9.19489e-05
8.73713e-05
-3.91423e-05
-8.76251e-05
8.72796e-05
-3.37364e-05
8.73398e-05
-2.82925e-05
8.75486e-05
-2.27644e-05
8.78975e-05
-1.71834e-05
8.83759e-05
-1.15604e-05
8.89726e-05
-5.90127e-06
8.96755e-05
-2.1313e-07
9.04716e-05
5.49682e-06
1.1243e-05
9.13484e-05
8.75716e-05
-3.88042e-05
-8.79097e-05
8.73892e-05
-3.35541e-05
8.73532e-05
-2.82565e-05
8.74623e-05
-2.28734e-05
8.77102e-05
-1.74313e-05
8.80898e-05
-1.194e-05
8.85931e-05
-6.40465e-06
8.92119e-05
-8.3193e-07
8.99369e-05
4.77191e-06
1.04208e-05
9.07591e-05
8.77036e-05
-3.83905e-05
-8.81173e-05
8.7441e-05
-3.32914e-05
8.7321e-05
-2.81366e-05
8.73433e-05
-2.28957e-05
8.75035e-05
-1.75915e-05
8.77966e-05
-1.22331e-05
8.82172e-05
-6.82529e-06
8.87598e-05
-1.37447e-06
8.94178e-05
4.11387e-06
9.65298e-06
9.01856e-05
8.77775e-05
-3.79093e-05
-8.82588e-05
8.74436e-05
-3.29575e-05
8.72498e-05
-2.79428e-05
8.71963e-05
-2.28421e-05
8.72799e-05
-1.76752e-05
8.74973e-05
-1.24504e-05
8.78448e-05
-7.17279e-06
8.83187e-05
-1.84842e-06
8.89149e-05
3.51766e-06
8.93802e-06
8.96299e-05
8.78026e-05
-3.73677e-05
-8.83441e-05
8.74052e-05
-3.25601e-05
8.71462e-05
-2.76838e-05
8.7026e-05
-2.27219e-05
8.70425e-05
-1.76917e-05
8.71932e-05
-1.26012e-05
8.7476e-05
-7.45557e-06
8.78885e-05
-2.26091e-06
8.84281e-05
2.97808e-06
8.27318e-06
8.90929e-05
8.77869e-05
-3.67721e-05
-8.83825e-05
8.73331e-05
-3.21063e-05
8.70162e-05
-2.7367e-05
8.68371e-05
-2.25427e-05
8.67943e-05
-1.76489e-05
8.68862e-05
-1.26931e-05
8.71116e-05
-7.68091e-06
8.74689e-05
-2.61829e-06
8.79569e-05
2.49014e-06
7.65532e-06
8.85747e-05
8.7738e-05
-3.61284e-05
-8.83818e-05
8.72337e-05
-3.1602e-05
8.68653e-05
-2.69986e-05
8.66338e-05
-2.23112e-05
8.65384e-05
-1.75535e-05
8.65781e-05
-1.27328e-05
8.67522e-05
-7.85502e-06
8.70601e-05
-2.92615e-06
8.7501e-05
2.04924e-06
7.08115e-06
8.80752e-05
8.7662e-05
-3.54414e-05
-8.8349e-05
8.71126e-05
-3.10526e-05
8.66983e-05
-2.65842e-05
8.642e-05
-2.2033e-05
8.62777e-05
-1.74111e-05
8.62707e-05
-1.27259e-05
8.63989e-05
-7.98323e-06
8.66621e-05
-3.18935e-06
8.70601e-05
1.6512e-06
6.54748e-06
8.75938e-05
8.75646e-05
-3.47157e-05
-8.82902e-05
8.69747e-05
-3.04628e-05
8.65191e-05
-2.61286e-05
8.6199e-05
-2.17129e-05
8.60146e-05
-1.72266e-05
8.59657e-05
-1.2677e-05
8.60526e-05
-8.07008e-06
8.62753e-05
-3.41211e-06
8.66342e-05
1.2923e-06
6.05128e-06
8.71304e-05
8.74502e-05
-3.39553e-05
-8.82106e-05
8.6824e-05
-2.98366e-05
8.63314e-05
-2.5636e-05
8.59737e-05
-2.13551e-05
8.57513e-05
-1.70043e-05
8.56647e-05
-1.25903e-05
8.57141e-05
-8.11951e-06
8.59001e-05
-3.59809e-06
8.62231e-05
9.69273e-07
5.58979e-06
8.66846e-05
8.73228e-05
-3.31636e-05
-8.81145e-05
8.6664e-05
-2.91778e-05
8.6138e-05
-2.511e-05
8.57464e-05
-2.09634e-05
8.54898e-05
-1.67477e-05
8.53689e-05
-1.24694e-05
8.53843e-05
-8.13494e-06
8.55367e-05
-3.7505e-06
8.58268e-05
6.79186e-07
5.16045e-06
8.62561e-05
8.71858e-05
-3.23438e-05
-8.80057e-05
8.64976e-05
-2.84896e-05
8.59415e-05
-2.45539e-05
8.55191e-05
-2.05411e-05
8.52315e-05
-1.64601e-05
8.50795e-05
-1.23174e-05
8.50639e-05
-8.11935e-06
8.51856e-05
-3.87215e-06
8.54453e-05
4.19448e-07
4.76098e-06
8.58448e-05
8.70419e-05
-3.14985e-05
-8.78872e-05
8.63271e-05
-2.77749e-05
8.57438e-05
-2.39705e-05
8.52936e-05
-2.00909e-05
8.49778e-05
-1.61443e-05
8.47975e-05
-1.21371e-05
8.47535e-05
-8.07539e-06
8.48469e-05
-3.96554e-06
8.50786e-05
1.8774e-07
4.38926e-06
8.54503e-05
8.68934e-05
-3.06303e-05
-8.77616e-05
8.61547e-05
-2.70361e-05
8.55466e-05
-2.33625e-05
8.50712e-05
-1.96155e-05
8.47298e-05
-1.58029e-05
8.45235e-05
-1.19308e-05
8.44535e-05
-8.00541e-06
8.45209e-05
-4.03292e-06
8.47266e-05
-1.8027e-08
4.04338e-06
8.50725e-05
8.67423e-05
-2.97414e-05
-8.76313e-05
8.59819e-05
-2.62756e-05
8.53514e-05
-2.2732e-05
8.4853e-05
-1.91171e-05
8.44882e-05
-1.5438e-05
8.42582e-05
-1.17008e-05
8.41643e-05
-7.91153e-06
8.42076e-05
-4.07628e-06
8.43894e-05
-1.99746e-07
3.72158e-06
8.47112e-05
8.65903e-05
-2.88337e-05
-8.74979e-05
8.58101e-05
-2.54955e-05
8.51593e-05
-2.20813e-05
8.464e-05
-1.85977e-05
8.42537e-05
-1.50517e-05
8.4002e-05
-1.1449e-05
8.38861e-05
-7.79563e-06
8.39072e-05
-4.09746e-06
8.40666e-05
-3.59141e-07
3.42224e-06
8.4366e-05
8.64385e-05
-2.7909e-05
-8.73632e-05
8.56405e-05
-2.46974e-05
8.49712e-05
-2.1412e-05
8.44328e-05
-1.80593e-05
8.40269e-05
-1.46459e-05
8.37552e-05
-1.11773e-05
8.3619e-05
-7.65945e-06
8.36197e-05
-4.09809e-06
8.37583e-05
-4.9779e-07
3.14387e-06
8.40367e-05
8.62883e-05
-2.69689e-05
-8.72284e-05
8.54741e-05
-2.38832e-05
8.4788e-05
-2.07258e-05
8.42321e-05
-1.75034e-05
8.38082e-05
-1.42221e-05
8.35181e-05
-1.08872e-05
8.33632e-05
-7.50455e-06
8.33449e-05
-4.0797e-06
8.34642e-05
-6.17149e-07
2.88507e-06
8.3723e-05
8.61406e-05
-2.60149e-05
-8.70947e-05
8.53116e-05
-2.30542e-05
8.46101e-05
-2.00243e-05
8.40382e-05
-1.69316e-05
8.35979e-05
-1.37818e-05
8.32909e-05
-1.05802e-05
8.31187e-05
-7.33235e-06
8.30827e-05
-4.04367e-06
8.31841e-05
-7.18561e-07
2.64455e-06
8.34246e-05
8.59961e-05
-2.50481e-05
-8.69629e-05
8.51537e-05
-2.22118e-05
8.44381e-05
-1.93087e-05
8.38517e-05
-1.63451e-05
8.33963e-05
-1.33264e-05
8.30737e-05
-1.02576e-05
8.28855e-05
-7.14416e-06
8.28331e-05
-3.99129e-06
8.29178e-05
-8.03269e-07
2.42111e-06
8.31413e-05
8.58555e-05
-2.40698e-05
-8.68338e-05
8.50009e-05
-2.13572e-05
8.42725e-05
-1.85803e-05
8.36727e-05
-1.57452e-05
8.32034e-05
-1.28571e-05
8.28664e-05
-9.92067e-06
8.26634e-05
-6.9412e-06
8.25959e-05
-3.92373e-06
8.2665e-05
-8.72428e-07
2.21361e-06
8.28725e-05
8.57194e-05
-2.30811e-05
-8.67082e-05
8.48536e-05
-2.04914e-05
8.41135e-05
-1.78402e-05
8.35014e-05
-1.51331e-05
8.30193e-05
-1.2375e-05
8.26691e-05
-9.57048e-06
8.24525e-05
-6.72455e-06
8.23708e-05
-3.84209e-06
8.24255e-05
-9.27117e-07
2.021e-06
8.26181e-05
8.55882e-05
-2.20828e-05
-8.65864e-05
8.47123e-05
-1.96155e-05
8.39614e-05
-1.70894e-05
8.3338e-05
-1.45097e-05
8.28442e-05
-1.18811e-05
8.24818e-05
-9.20807e-06
8.22525e-05
-6.49526e-06
8.21578e-05
-3.74739e-06
8.2199e-05
-9.68339e-07
1.84227e-06
8.23777e-05
8.54622e-05
-2.10758e-05
-8.64691e-05
8.4577e-05
-1.87304e-05
8.38164e-05
-1.63288e-05
8.31827e-05
-1.3876e-05
8.2678e-05
-1.13765e-05
8.23043e-05
-8.83438e-06
8.20633e-05
-6.25425e-06
8.19565e-05
-3.64055e-06
8.19852e-05
-9.97031e-07
1.6765e-06
8.2151e-05
8.53417e-05
-2.0061e-05
-8.63566e-05
8.44482e-05
-1.78368e-05
8.36786e-05
-1.55592e-05
8.30354e-05
-1.32328e-05
8.25208e-05
-1.08618e-05
8.21367e-05
-8.45029e-06
8.18848e-05
-6.0024e-06
8.17668e-05
-3.52247e-06
8.17838e-05
-1.01407e-06
1.5228e-06
8.19375e-05
8.52271e-05
-1.9039e-05
-8.62491e-05
8.43258e-05
-1.69355e-05
8.35481e-05
-1.47814e-05
8.28962e-05
-1.25809e-05
8.23724e-05
-1.03381e-05
8.19787e-05
-8.0566e-06
8.17169e-05
-5.74054e-06
8.15884e-05
-3.39396e-06
8.15946e-05
-1.02029e-06
1.38034e-06
8.1737e-05
8.51184e-05
-1.80106e-05
-8.61469e-05
8.42102e-05
-1.60273e-05
8.34249e-05
-1.39961e-05
8.27651e-05
-1.19211e-05
8.22329e-05
-9.80589e-06
8.18303e-05
-7.65406e-06
8.15592e-05
-5.46941e-06
8.1421e-05
-3.25579e-06
8.14172e-05
-1.01645e-06
1.24834e-06
8.15492e-05
8.50159e-05
-1.69763e-05
-8.60502e-05
8.41013e-05
-1.51127e-05
8.33091e-05
-1.3204e-05
8.2642e-05
-1.1254e-05
8.21021e-05
-9.26598e-06
8.16914e-05
-7.24337e-06
8.14117e-05
-5.18972e-06
8.12646e-05
-3.10867e-06
8.12515e-05
-1.0033e-06
1.12606e-06
8.13737e-05
8.49195e-05
-1.59367e-05
-8.59592e-05
8.39991e-05
-1.41923e-05
8.32008e-05
-1.24057e-05
8.2527e-05
-1.05802e-05
8.198e-05
-8.71897e-06
8.15618e-05
-6.82517e-06
8.12742e-05
-4.90215e-06
8.11188e-05
-2.95329e-06
8.1097e-05
-9.81503e-07
1.01279e-06
8.12103e-05
8.48295e-05
-1.48922e-05
-8.58739e-05
8.39039e-05
-1.32667e-05
8.30999e-05
-1.16017e-05
8.242e-05
-9.90029e-06
8.18665e-05
-8.16545e-06
8.14414e-05
-6.40008e-06
8.11465e-05
-4.6073e-06
8.09835e-05
-2.79027e-06
8.09537e-05
-9.51724e-07
9.07865e-07
8.10586e-05
8.47458e-05
-1.38435e-05
-8.57945e-05
8.38155e-05
-1.23363e-05
8.30063e-05
-1.07925e-05
8.23209e-05
-9.21483e-06
8.17614e-05
-7.60599e-06
8.133e-05
-5.96867e-06
8.10284e-05
-4.30577e-06
8.08584e-05
-2.62022e-06
8.08212e-05
-9.14576e-07
8.10654e-07
8.09184e-05
8.46685e-05
-1.2791e-05
-8.57211e-05
8.37339e-05
-1.14017e-05
8.29201e-05
-9.97869e-06
8.22296e-05
-8.52433e-06
8.16647e-05
-7.04109e-06
8.12275e-05
-5.53147e-06
8.09198e-05
-3.9981e-06
8.07433e-05
-2.4437e-06
8.06994e-05
-8.70645e-07
7.20552e-07
8.07895e-05
8.45975e-05
-1.17349e-05
-8.56535e-05
8.36591e-05
-1.04633e-05
8.28411e-05
-9.16067e-06
8.2146e-05
-7.82925e-06
8.15762e-05
-6.47127e-06
8.11337e-05
-5.08898e-06
8.08204e-05
-3.68482e-06
8.0638e-05
-2.26127e-06
8.05878e-05
-8.20488e-07
6.36979e-07
8.06714e-05
8.45329e-05
-1.06759e-05
-8.5592e-05
8.35911e-05
-9.52149e-06
8.27693e-05
-8.33889e-06
8.20701e-05
-7.13005e-06
8.14958e-05
-5.89698e-06
8.10486e-05
-4.64171e-06
8.07302e-05
-3.36644e-06
8.05423e-05
-2.07342e-06
8.04865e-05
-7.64638e-07
5.59379e-07
8.05641e-05
8.44746e-05
-9.61422e-06
-8.55363e-05
8.35298e-05
-8.57667e-06
8.27047e-05
-7.51375e-06
8.20018e-05
-6.42716e-06
8.14235e-05
-5.31866e-06
8.09719e-05
-4.19009e-06
8.06488e-05
-3.04342e-06
8.04561e-05
-1.88066e-06
8.03951e-05
-7.0361e-07
4.8722e-07
8.04672e-05
8.44226e-05
-8.55025e-06
-8.54865e-05
8.34751e-05
-7.62925e-06
8.26471e-05
-6.68567e-06
8.19409e-05
-5.72099e-06
8.1359e-05
-4.73676e-06
8.09035e-05
-3.73459e-06
8.05763e-05
-2.71622e-06
8.03791e-05
-1.68346e-06
8.03134e-05
-6.37899e-07
4.19983e-07
8.03806e-05
8.43767e-05
-7.48436e-06
-8.54426e-05
8.3427e-05
-6.67959e-06
8.25964e-05
-5.85504e-06
8.18873e-05
-5.01195e-06
8.13023e-05
-4.15168e-06
8.08433e-05
-3.27562e-06
8.05124e-05
-2.3853e-06
8.03112e-05
-1.48229e-06
8.02413e-05
-5.67983e-07
3.57166e-07
8.03041e-05
8.43369e-05
-6.41693e-06
-8.54043e-05
8.33853e-05
-5.72807e-06
8.25525e-05
-5.02222e-06
8.1841e-05
-4.30043e-06
8.12532e-05
-3.56383e-06
8.07911e-05
-2.81361e-06
8.04569e-05
-2.05108e-06
8.02522e-05
-1.27758e-06
8.01786e-05
-4.94331e-07
2.98273e-07
8.02375e-05
8.43031e-05
-5.34831e-06
-8.53717e-05
8.33501e-05
-4.77506e-06
8.25154e-05
-4.18761e-06
8.18018e-05
-3.58681e-06
8.12116e-05
-2.97359e-06
8.07469e-05
-2.34895e-06
8.04098e-05
-1.71397e-06
8.0202e-05
-1.06979e-06
8.01251e-05
-4.17407e-07
2.42822e-07
8.01806e-05
8.42752e-05
-4.27888e-06
-8.53446e-05
8.33211e-05
-3.82093e-06
8.2485e-05
-3.35157e-06
8.17697e-05
-2.87146e-06
8.11774e-05
-2.38135e-06
8.07105e-05
-1.88204e-06
8.03709e-05
-1.37441e-06
8.01605e-05
-8.59343e-07
8.00808e-05
-3.37669e-07
1.90327e-07
8.01333e-05
8.42531e-05
-3.209e-06
-8.5323e-05
8.32982e-05
-2.86603e-06
8.24611e-05
-2.51445e-06
8.17444e-05
-2.15474e-06
8.11505e-05
-1.78749e-06
8.06818e-05
-1.41329e-06
8.03402e-05
-1.03279e-06
8.01275e-05
-6.46685e-07
8.00454e-05
-2.55579e-07
1.40301e-07
8.00955e-05
8.42369e-05
-2.13901e-06
-8.53069e-05
8.32816e-05
-1.9107e-06
8.24437e-05
-1.67659e-06
8.1726e-05
-1.43702e-06
8.11309e-05
-1.19238e-06
8.06607e-05
-9.43082e-07
8.03174e-05
-6.89554e-07
8.0103e-05
-4.3226e-07
8.0019e-05
-1.71605e-07
9.22465e-08
8.00671e-05
8.42263e-05
-1.06925e-06
-8.52961e-05
8.32709e-05
-9.55259e-07
8.24326e-05
-8.3833e-07
8.17143e-05
-7.18648e-07
8.11183e-05
-5.96415e-07
8.0647e-05
-4.71836e-07
8.03026e-05
-3.45132e-07
8.00869e-05
-2.16532e-07
8.00015e-05
-8.624e-08
4.56563e-08
8.00481e-05
8.42214e-05
-8.52906e-05
8.32661e-05
8.24278e-05
8.17091e-05
8.11127e-05
8.06409e-05
8.02957e-05
8.00792e-05
7.9993e-05
8.00386e-05
8.4029e-05
3.81648e-06
8.28919e-05
1.21422e-06
8.23443e-05
1.93682e-06
8.25368e-05
3.80163e-06
8.25879e-05
4.68133e-06
8.24859e-05
5.33085e-06
8.23704e-05
6.14978e-06
8.22595e-05
7.04725e-06
8.21417e-05
7.97522e-06
8.20203e-05
8.95652e-06
8.19046e-05
1.00108e-05
8.18041e-05
1.11475e-05
8.17291e-05
1.23753e-05
8.16922e-05
1.37037e-05
8.17087e-05
1.51418e-05
8.17975e-05
1.66962e-05
8.19815e-05
1.83686e-05
8.2293e-05
2.01478e-05
8.27986e-05
2.19847e-05
2.37164e-05
8.36687e-05
2.18594e-06
8.3052e-05
1.83099e-06
8.25912e-05
2.39765e-06
8.26627e-05
3.73009e-06
8.26946e-05
4.64947e-06
8.26264e-05
5.39905e-06
8.25472e-05
6.22896e-06
8.24744e-05
7.12004e-06
8.2402e-05
8.04763e-06
8.23333e-05
9.02522e-06
8.22768e-05
1.00673e-05
8.22418e-05
1.11825e-05
8.22389e-05
1.23782e-05
8.22807e-05
1.36619e-05
8.23828e-05
1.50397e-05
8.2564e-05
1.6515e-05
8.28477e-05
1.8085e-05
8.32631e-05
1.97324e-05
8.38461e-05
2.14017e-05
2.29519e-05
8.28453e-05
1.41835e-06
8.27867e-05
1.88959e-06
8.25987e-05
2.58567e-06
8.26454e-05
3.68344e-06
8.2694e-05
4.60083e-06
8.26818e-05
5.41122e-06
8.2654e-05
6.25681e-06
8.26282e-05
7.14579e-06
8.26056e-05
8.07021e-06
8.2591e-05
9.03982e-06
8.25927e-05
1.00656e-05
8.26199e-05
1.11552e-05
8.26832e-05
1.23149e-05
8.27952e-05
1.35499e-05
8.29706e-05
1.48643e-05
8.32269e-05
1.62587e-05
8.35846e-05
1.77274e-05
8.40657e-05
1.92513e-05
8.46906e-05
2.07767e-05
2.21686e-05
8.24738e-05
1.04547e-06
8.25239e-05
1.83948e-06
8.24905e-05
2.61912e-06
8.25652e-05
3.60873e-06
8.26428e-05
4.52325e-06
8.26823e-05
5.37169e-06
8.27069e-05
6.23225e-06
8.27309e-05
7.1218e-06
8.27591e-05
8.04197e-06
8.27978e-05
9.00115e-06
8.28552e-05
1.00083e-05
8.29406e-05
1.10698e-05
8.30643e-05
1.21911e-05
8.32384e-05
1.33758e-05
8.34766e-05
1.46262e-05
8.37945e-05
1.59408e-05
8.42093e-05
1.73126e-05
8.47386e-05
1.87221e-05
8.53968e-05
2.01186e-05
2.13748e-05
8.22892e-05
8.74813e-07
8.23555e-05
1.77312e-06
8.23913e-05
2.58331e-06
8.24823e-05
3.51777e-06
8.258e-05
4.42552e-06
8.26587e-05
5.29305e-06
8.27278e-05
6.16311e-06
8.27972e-05
7.05237e-06
8.28727e-05
7.9665e-06
8.29608e-05
8.91307e-06
8.30695e-05
9.89954e-06
8.32077e-05
1.09316e-05
8.33855e-05
1.20133e-05
8.36139e-05
1.31475e-05
8.39053e-05
1.43347e-05
8.42736e-05
1.55725e-05
8.47333e-05
1.68529e-05
8.52983e-05
1.8157e-05
8.59792e-05
1.94377e-05
2.05762e-05
8.22086e-05
7.99682e-07
8.22663e-05
1.71543e-06
8.23253e-05
2.5243e-06
8.24205e-05
3.42263e-06
8.25284e-05
4.31755e-06
8.26325e-05
5.18898e-06
8.27351e-05
6.06057e-06
8.28418e-05
6.94565e-06
8.29577e-05
7.85056e-06
8.30889e-05
8.78187e-06
8.32427e-05
9.74577e-06
8.34273e-05
1.0747e-05
8.36518e-05
1.17888e-05
8.39265e-05
1.28728e-05
8.42624e-05
1.39988e-05
8.46714e-05
1.51635e-05
8.51657e-05
1.63586e-05
8.57567e-05
1.7566e-05
8.6452e-05
1.87423e-05
1.97765e-05
8.21822e-05
7.64999e-07
8.22285e-05
1.66913e-06
8.22915e-05
2.4613e-06
8.23848e-05
3.32932e-06
8.24963e-05
4.20604e-06
8.26152e-05
5.07009e-06
8.27407e-05
5.93502e-06
8.28758e-05
6.81057e-06
8.30242e-05
7.70214e-06
8.3191e-05
8.61505e-06
8.33826e-05
9.55422e-06
8.36062e-05
1.05234e-05
8.387e-05
1.1525e-05
8.4183e-05
1.25598e-05
8.45549e-05
1.36269e-05
8.4996e-05
1.47224e-05
8.55164e-05
1.58382e-05
8.61253e-05
1.69571e-05
8.68286e-05
1.8039e-05
1.898e-05
8.21806e-05
7.45455e-07
8.22199e-05
1.6298e-06
8.22816e-05
2.39965e-06
8.23714e-05
3.23947e-06
8.24832e-05
4.09428e-06
8.26101e-05
4.94313e-06
8.27507e-05
5.79444e-06
8.29063e-05
6.65504e-06
8.30794e-05
7.52895e-06
8.32744e-05
8.42015e-06
8.34962e-05
9.33233e-06
8.37514e-05
1.02683e-05
8.40469e-05
1.12295e-05
8.43906e-05
1.22162e-05
8.47908e-05
1.32267e-05
8.52562e-05
1.4257e-05
8.57952e-05
1.52992e-05
8.64153e-05
1.63371e-05
8.71209e-05
1.73334e-05
1.81912e-05
8.21896e-05
7.30236e-07
8.22265e-05
1.59296e-06
8.22867e-05
2.33941e-06
8.23738e-05
3.15232e-06
8.2485e-05
3.9831e-06
8.26164e-05
4.81175e-06
8.27667e-05
5.64416e-06
8.29365e-05
6.48519e-06
8.31279e-05
7.33755e-06
8.33441e-05
8.20397e-06
8.35894e-05
9.08704e-06
8.38691e-05
9.98857e-06
8.41892e-05
1.09094e-05
8.45564e-05
1.1849e-05
8.49777e-05
1.28053e-05
8.54605e-05
1.37743e-05
8.60116e-05
1.47481e-05
8.6637e-05
1.57116e-05
8.73399e-05
1.66305e-05
1.74138e-05
8.22027e-05
7.15089e-07
8.22399e-05
1.55578e-06
8.22999e-05
2.27934e-06
8.23859e-05
3.06638e-06
8.24969e-05
3.87211e-06
8.26311e-05
4.67756e-06
8.27877e-05
5.48747e-06
8.29675e-05
6.30543e-06
8.31719e-05
7.13311e-06
8.34037e-05
7.97222e-06
8.36663e-05
8.82439e-06
8.39643e-05
9.69063e-06
8.43026e-05
1.05711e-05
8.46868e-05
1.14647e-05
8.5123e-05
1.23692e-05
8.56169e-05
1.32804e-05
8.61744e-05
1.41906e-05
8.68e-05
1.5086e-05
8.74961e-05
1.59344e-05
1.66511e-05
8.22169e-05
6.98632e-07
8.22558e-05
1.51693e-06
8.23168e-05
2.21831e-06
8.24029e-05
2.98028e-06
8.25144e-05
3.76057e-06
8.26508e-05
4.54118e-06
8.2812e-05
5.3263e-06
8.29986e-05
6.11879e-06
8.32122e-05
6.91952e-06
8.3455e-05
7.72944e-06
8.373e-05
8.54942e-06
8.40408e-05
9.37978e-06
8.43918e-05
1.02201e-05
8.47875e-05
1.1069e-05
8.52328e-05
1.19239e-05
8.57326e-05
1.27805e-05
8.62916e-05
1.36317e-05
8.69132e-05
1.44643e-05
8.75989e-05
1.52487e-05
1.59059e-05
8.22311e-05
6.80648e-07
8.2272e-05
1.47602e-06
8.23346e-05
2.15569e-06
8.24218e-05
2.89309e-06
8.25345e-05
3.64785e-06
8.26729e-05
4.40278e-06
8.28374e-05
5.16182e-06
8.30289e-05
5.92732e-06
8.32487e-05
6.69965e-06
8.3499e-05
7.47917e-06
8.37823e-05
8.26616e-06
8.41016e-05
9.06045e-06
8.44605e-05
9.86116e-06
8.48629e-05
1.06666e-05
8.53128e-05
1.14741e-05
8.58141e-05
1.22792e-05
8.63703e-05
1.30754e-05
8.69844e-05
1.38503e-05
8.76567e-05
1.45764e-05
1.51801e-05
8.22447e-05
6.61336e-07
8.22876e-05
1.43313e-06
8.2352e-05
2.09128e-06
8.24407e-05
2.8044e-06
8.25549e-05
3.53363e-06
8.26952e-05
4.26253e-06
8.28622e-05
4.9948e-06
8.3057e-05
5.7325e-06
8.32811e-05
6.47561e-06
8.35361e-05
7.22409e-06
8.38245e-05
7.9778e-06
8.41488e-05
8.73617e-06
8.45119e-05
9.49801e-06
8.49171e-05
1.02614e-05
8.53676e-05
1.10236e-05
8.58666e-05
1.17803e-05
8.64168e-05
1.25252e-05
8.70203e-05
1.32468e-05
8.7677e-05
1.39197e-05
1.44753e-05
8.22577e-05
6.40996e-07
8.23023e-05
1.38856e-06
8.23684e-05
2.02517e-06
8.24586e-05
2.71412e-06
8.25744e-05
3.4179e-06
8.27163e-05
4.12064e-06
8.28852e-05
4.82589e-06
8.30822e-05
5.53543e-06
8.33088e-05
6.24901e-06
8.35666e-05
6.96629e-06
8.38576e-05
7.68683e-06
8.4184e-05
8.40976e-06
8.45483e-05
9.13368e-06
8.49532e-05
9.85656e-06
8.54012e-05
1.05755e-05
8.58949e-05
1.12866e-05
8.64364e-05
1.19837e-05
8.70271e-05
1.26561e-05
8.76664e-05
1.32804e-05
1.37928e-05
8.227e-05
6.19915e-07
8.23159e-05
1.34271e-06
8.23834e-05
1.95766e-06
8.24751e-05
2.62246e-06
8.25921e-05
3.30084e-06
8.27353e-05
3.97747e-06
8.29055e-05
4.65568e-06
8.31039e-05
5.33706e-06
8.33318e-05
6.02115e-06
8.35906e-05
6.70741e-06
8.38823e-05
7.39519e-06
8.42086e-05
8.08342e-06
8.45717e-05
8.77057e-06
8.49738e-05
9.45452e-06
8.54169e-05
1.01324e-05
8.5903e-05
1.08005e-05
8.64337e-05
1.14529e-05
8.70098e-05
1.208e-05
8.76305e-05
1.26597e-05
1.3133e-05
8.22818e-05
5.98335e-07
8.23285e-05