/*--------------------------------*- C++ -*----------------------------------*\
  =========                 |
  \\      /  F ield         | OpenFOAM: The Open Source CFD Toolbox
   \\    /   O peration     | Website:  https://openfoam.org
    \\  /    A nd           | Version:  6
     \\/     M anipulation  |
\*---------------------------------------------------------------------------*/
FoamFile
{
    version     2.0;
    format      ascii;
    class       volVectorField;
    location    "1.1";
    object      U;
}
// * * * * * * * * * * * * * * * * * * * * * * * * * * * * * * * * * * * * * //

dimensions      [0 1 -1 0 0 0 0];

internalField   nonuniform List<vector> 
5600
(
(1.95645 0.00569049 3.73795e-19)
(1.23014 0.00646581 -6.42729e-18)
(0.972517 0.00582135 6.41295e-18)
(1.01197 0.00448926 0)
(1.04427 0.00394803 0)
(1.0397 0.00423497 0)
(1.02957 0.00470636 -1.19664e-17)
(1.02251 0.00515399 1.19393e-17)
(1.01609 0.00565232 0)
(1.00878 0.00625261 0)
(1.00052 0.0069564 0)
(0.991377 0.00776444 0)
(0.981235 0.00868843 0)
(0.969937 0.00974476 -2.35589e-17)
(0.957316 0.0109511 2.35061e-17)
(0.943192 0.012325 -4.69083e-17)
(0.927365 0.0138797 4.68037e-17)
(0.909626 0.0156125 0)
(0.88977 0.0174811 -3.64043e-19)
(0.867634 0.0193481 0)
(1.96907 0.0101854 -3.68584e-19)
(1.2243 0.0136099 6.33842e-18)
(0.972013 0.0138074 -6.32662e-18)
(1.01528 0.0125371 0)
(1.04659 0.0120905 0)
(1.04107 0.0127828 2.443e-17)
(1.03085 0.0138842 3.10162e-22)
(1.02386 0.0151169 -7.37313e-19)
(1.01747 0.0165589 1.42144e-22)
(1.01019 0.0182781 -2.35104e-17)
(1.002 0.0202879 0)
(0.992959 0.0226031 -4.75756e-17)
(0.982955 0.0252563 4.6755e-17)
(0.971832 0.0282905 0)
(0.959432 0.031754 0)
(0.945583 0.0356953 0)
(0.930099 0.0401494 0)
(0.912779 0.0451043 -4.63194e-17)
(0.893422 0.0504369 4.65936e-17)
(0.871777 0.0557923 4.54555e-17)
(1.98432 0.0109635 0)
(1.22192 0.0206875 0)
(0.970094 0.0228484 0)
(1.0168 0.0207286 0)
(1.04857 0.0200324 2.34107e-17)
(1.04284 0.0212128 -2.41065e-17)
(1.03278 0.0229816 -1.45885e-18)
(1.02607 0.0249674 -7.28354e-19)
(1.0199 0.0273213 2.32732e-17)
(1.01284 0.0301407 -2.17864e-17)
(1.0049 0.0334417 -1.45029e-18)
(0.996153 0.0372481 4.70657e-17)
(0.986493 0.0416111 -4.77194e-17)
(0.975782 0.0465979 1.44393e-18)
(0.963881 0.052284 4.61386e-17)
(0.950641 0.0587455 -9.35816e-17)
(0.935893 0.0660366 -1.43822e-18)
(0.919453 0.0741364 4.59365e-17)
(0.901124 0.0828431 -1.43343e-18)
(0.880578 0.0915972 -7.1604e-19)
(2.00304 0.0132336 0)
(1.22094 0.0266141 -1.44319e-18)
(0.967546 0.0300712 0)
(1.01755 0.02772 0)
(1.05037 0.0271515 0)
(1.04484 0.0289552 0)
(1.03517 0.0314797 1.43739e-18)
(1.02895 0.0342887 2.44119e-17)
(1.02323 0.0375988 -2.29534e-17)
(1.0166 0.0415386 -1.43319e-18)
(1.00912 0.0461302 2.86357e-18)
(1.00088 0.0514078 0)
(0.991798 0.0574404 -4.4299e-17)
(0.981766 0.0643176 4.42553e-17)
(0.970673 0.0721399 4.56388e-17)
(0.958402 0.0810082 -4.55937e-17)
(0.944817 0.0909951 9.2523e-17)
(0.929761 0.102074 -9.10096e-17)
(0.913059 0.113973 1.42066e-18)
(0.894332 0.125954 1.41984e-18)
(2.02493 0.0157246 -5.60001e-18)
(1.22002 0.0316571 7.07278e-18)
(0.964585 0.035933 -1.13297e-17)
(1.01826 0.0335051 -1.13234e-17)
(1.05233 0.0332395 2.26391e-17)
(1.04714 0.0357552 2.26282e-17)
(1.03803 0.0391065 -2.26188e-17)
(1.03248 0.0428056 1.4131e-18)
(1.02738 0.047119 1.41251e-18)
(1.02136 0.0521981 4.51816e-17)
(1.01451 0.0580695 -9.03251e-17)
(1.00698 0.0647765 1.41041e-18)
(0.998701 0.0724041 4.65345e-17)
(0.989602 0.0810613 1.40954e-18)
(0.979614 0.0908697 -4.36777e-17)
(0.968663 0.101951 4.78838e-17)
(0.956657 0.114393 1.40774e-18)
(0.943476 0.128164 0)
(0.928987 0.142928 1.40654e-18)
(0.912794 0.157786 1.40632e-18)
(2.04962 0.0180751 5.47993e-18)
(1.21873 0.0359234 -5.53735e-18)
(0.961272 0.0405968 1.38709e-18)
(1.0192 0.0380325 0)
(1.05468 0.0381627 2.21992e-17)
(1.04988 0.0414816 -2.22038e-17)
(1.04143 0.0457325 1.38803e-18)
(1.03666 0.0503826 -4.72031e-17)
(1.0323 0.0557386 -2.77737e-18)
(1.027 0.0619644 8.88887e-17)
(1.02093 0.0690866 -4.72315e-17)
(1.01426 0.0771556 -1.38945e-18)
(1.00697 0.0862695 -4.72506e-17)
(0.999019 0.0965527 -4.58702e-17)
(0.990395 0.108143 8.75861e-17)
(0.981074 0.121177 8.62132e-17)
(0.971014 0.135754 -9.04013e-17)
(0.960142 0.151836 8.76371e-17)
(0.948379 0.169029 -1.7948e-16)
(0.935339 0.186291 8.76825e-17)
(2.07668 0.0204309 0)
(1.21652 0.0392853 0)
(0.957492 0.0437585 -1.35615e-18)
(1.02058 0.0410857 2.17155e-17)
(1.05763 0.0418169 -2.17347e-17)
(1.05319 0.0460823 -1.35952e-18)
(1.04542 0.0513225 -1.36074e-18)
(1.04148 0.0569841 1.36195e-18)
(1.03789 0.0634089 1.36315e-18)
(1.03337 0.0707656 0)
(1.02815 0.0790786 4.50631e-17)
(1.02245 0.0884048 2.11752e-22)
(1.01629 0.0988536 -4.24062e-17)
(1.00967 0.110561 -8.62563e-17)
(1.00262 0.123675 1.75404e-16)
(0.995178 0.138341 -8.64066e-17)
(0.987364 0.154664 8.78552e-17)
(0.97915 0.172604 -8.65571e-17)
(0.970519 0.191717 -8.80078e-17)
(0.961111 0.210847 8.67106e-17)
(2.10554 0.0239482 0)
(1.21203 0.0412582 1.32034e-18)
(0.95293 0.0445527 -2.11802e-17)
(1.02267 0.0424206 2.25401e-17)
(1.06135 0.0442384 -2.1245e-17)
(1.05706 0.0496145 2.39391e-17)
(1.04992 0.0559363 0)
(1.04679 0.0626666 1.33425e-18)
(1.04396 0.0701597 0)
(1.04022 0.0785895 -1.33855e-18)
(1.0359 0.0879855 4.29032e-17)
(1.03124 0.0984135 -4.29723e-17)
(1.0263 0.109993 -8.60836e-17)
(1.02113 0.122867 8.4875e-17)
(1.01581 0.13719 0)
(1.01044 0.153108 0)
(1.00509 0.170727 8.66407e-17)
(0.999795 0.19001 1.94709e-22)
(0.994589 0.210491 -8.69202e-17)
(0.989152 0.230964 8.84139e-17)
(2.13564 0.0337069 -4.44709e-18)
(1.20164 0.0390736 4.49659e-18)
(0.947761 0.0399817 0)
(1.02656 0.0417486 -1.93998e-18)
(1.066 0.0458399 -2.07396e-17)
(1.06127 0.0523467 -2.20884e-17)
(1.0547 0.0597968 8.33548e-17)
(1.05233 0.0676693 -4.30826e-17)
(1.05018 0.0762148 -4.18771e-17)
(1.04719 0.0856282 4.32891e-17)
(1.04378 0.0959735 -8.41562e-17)
(1.04021 0.107332 1.68716e-16)
(1.03656 0.119829 1.88006e-22)
(1.03294 0.133609 -8.47648e-17)
(1.02945 0.148819 0)
(1.02627 0.1656 8.51744e-17)
(1.02352 0.184054 -1.7076e-16)
(1.02129 0.204157 8.55866e-17)
(1.01972 0.225456 0)
(1.01857 0.246715 0)
(2.16816 0.0551778 -5.55412e-18)
(1.17655 0.0249886 4.3704e-18)
(0.946246 0.0257755 0)
(1.03622 0.0397012 2.0774e-17)
(1.07165 0.047793 -2.02085e-17)
(1.06513 0.0548757 -4.05436e-17)
(1.05936 0.063274 -2.93356e-22)
(1.05776 0.0723251 8.16076e-17)
(1.05619 0.0818729 -8.18695e-17)
(1.05393 0.0921508 4.10664e-17)
(1.05146 0.103315 -8.23975e-17)
(1.04903 0.11547 8.26635e-17)
(1.04674 0.128738 -8.29311e-17)
(1.0447 0.143252 8.32e-17)
(1.04308 0.159142 8.34703e-17)
(1.04209 0.176525 -8.37421e-17)
(1.04193 0.195482 0)
(1.0428 0.216013 -8.42893e-17)
(1.04496 0.237833 8.45655e-17)
(1.04819 0.259748 8.48183e-17)
(0.83985 0.0209773 0)
(0.802111 0.0232191 0)
(0.756777 0.0257924 4.23812e-17)
(0.701757 0.0287523 -2.30044e-17)
(0.634248 0.0321085 -2.51557e-17)
(0.550671 0.0357075 4.16161e-17)
(0.447194 0.0389826 -1.54562e-17)
(0.320097 0.0405603 3.48794e-17)
(0.167968 0.0376625 0)
(0.0470622 0.0213996 0)
(0.844672 0.0607861 -1.83893e-17)
(0.807659 0.0676121 -5.92723e-17)
(0.763048 0.07548 -2.13176e-17)
(0.708908 0.0845533 2.31417e-17)
(0.642435 0.0948668 2.53017e-17)
(0.560003 0.105947 -5.57988e-17)
(0.457653 0.116089 4.66138e-17)
(0.331407 0.121079 -8.76126e-17)
(0.178791 0.112132 -1.00334e-17)
(0.0534738 0.063928 6.41451e-17)
(0.854881 0.0997916 1.84652e-17)
(0.819217 0.111027 -1.98394e-17)
(0.776011 0.124011 4.2814e-17)
(0.723582 0.138983 4.64831e-17)
(0.659116 0.156001 -5.08311e-17)
(0.578902 0.174267 -2.80283e-17)
(0.478716 0.190956 3.12281e-17)
(0.353922 0.199058 -5.28343e-17)
(0.200308 0.183726 8.07004e-17)
(0.0663072 0.104918 -1.52511e-16)
(0.870807 0.137139 3.69568e-17)
(0.837011 0.152606 0)
(0.795782 0.170481 0)
(0.745783 0.191046 -4.65181e-17)
(0.684171 0.214378 5.08692e-17)
(0.607099 0.239352 2.0937e-21)
(0.509954 0.262041 0)
(0.387092 0.272737 7.0509e-17)
(0.231917 0.250943 -6.05767e-17)
(0.085153 0.143131 1.87878e-16)
(0.892133 0.171562 -3.68615e-17)
(0.860657 0.190938 0)
(0.821894 0.21336 8.54516e-17)
(0.774951 0.239098 0)
(0.716921 0.268246 5.0713e-17)
(0.643774 0.299349 5.59235e-17)
(0.550393 0.327401 0)
(0.429849 0.340137 1.40515e-16)
(0.272531 0.311933 -2.01172e-17)
(0.1093 0.177419 -7.01689e-17)
(0.918108 0.202138 1.98428e-21)
(0.889328 0.224991 -1.57438e-16)
(0.853449 0.25151 -2.64627e-21)
(0.810088 0.281894 0)
(0.756237 0.31625 -5.03805e-17)
(0.687644 0.352791 -5.55356e-17)
(0.598593 0.385462 0)
(0.480636 0.399601 -1.39437e-16)
(0.320621 0.365056 -1.59579e-16)
(0.137779 0.206793 2.31772e-17)
(0.947711 0.22823 7.35553e-22)
(0.921905 0.254081 1.08909e-21)
(0.889241 0.284187 1.68219e-16)
(0.849877 0.318636 -1.26303e-21)
(0.800654 0.357529 -9.97267e-17)
(0.737064 0.39873 -1.09889e-16)
(0.652719 0.43516 -3.0577e-17)
(0.537481 0.449941 3.44459e-17)
(0.37428 0.409076 1.1818e-16)
(0.169377 0.23047 2.28594e-16)
(0.979799 0.249494 -1.7522e-21)
(0.957067 0.277903 7.7015e-17)
(0.927831 0.311086 -1.66069e-16)
(0.892743 0.349015 -4.50371e-17)
(0.848414 0.391754 2.45932e-16)
(0.790083 0.436787 1.08342e-16)
(0.710645 0.47603 -1.20491e-16)
(0.598166 0.490595 0)
(0.431412 0.443374 3.87356e-17)
(0.202732 0.248007 -4.04095e-16)
(1.0132 0.266019 -1.21332e-21)
(0.993114 0.296547 -7.58217e-17)
(0.967343 0.332369 3.97453e-21)
(0.936671 0.373266 -8.86032e-17)
(0.897384 0.419225 9.67141e-17)
(0.844543 0.46732 5.32254e-17)
(0.770292 0.508476 5.91562e-17)
(0.660754 0.522004 -3.3258e-17)
(0.490186 0.468347 3.79432e-17)
(0.2365 0.2595 1.75682e-16)
(1.04591 0.279424 -6.93659e-17)
(1.02734 0.311596 -7.4424e-17)
(1.00521 0.349681 8.01793e-17)
(0.979114 0.393065 8.68813e-17)
(0.945152 0.441513 -1.89589e-16)
(0.898265 0.491591 0)
(0.829643 0.533265 0)
(0.723071 0.544404 -3.25096e-17)
(0.547925 0.483942 3.70398e-17)
(0.268616 0.264709 0)
(1.07563 0.300164 6.78394e-17)
(1.05771 0.333374 7.28659e-17)
(1.03916 0.371805 0)
(1.01696 0.415395 -8.52267e-17)
(0.987495 0.463085 0)
(0.945313 0.510641 -1.02542e-16)
(0.88047 0.547437 -5.70351e-17)
(0.774652 0.551461 -6.42067e-17)
(0.593992 0.483227 -1.46742e-16)
(0.293314 0.260091 1.70236e-16)
(1.10734 0.318726 1.60803e-21)
(1.09306 0.352541 -1.4819e-16)
(1.07806 0.390503 2.21789e-21)
(1.05938 0.433037 8.67075e-17)
(1.03339 0.478161 0)
(0.993922 0.520778 1.04395e-16)
(0.929758 0.549801 0)
(0.820901 0.543867 1.30871e-16)
(0.631874 0.466453 1.54375e-20)
(0.311481 0.245343 -1.73725e-16)
(1.14033 0.333191 6.99589e-17)
(1.13016 0.366559 -7.51596e-17)
(1.11863 0.403338 2.43224e-16)
(1.10304 0.443785 -8.79882e-17)
(1.07959 0.485153 -9.61663e-17)
(1.04137 0.521629 -5.29977e-17)
(0.976041 0.541873 2.43197e-21)
(0.862306 0.52547 6.65012e-17)
(0.663874 0.439379 2.66308e-16)
(0.325071 0.224649 4.41981e-17)
(1.17434 0.3427 -1.41584e-16)
(1.16797 0.374895 0)
(1.15954 0.409735 -4.55104e-21)
(1.1464 0.447087 8.90725e-17)
(1.12446 0.483605 2.43452e-16)
(1.08607 0.51299 5.3677e-17)
(1.01793 0.52394 1.19569e-16)
(0.897843 0.497379 -1.01113e-16)
(0.689284 0.404204 -1.9295e-16)
(0.333966 0.19996 1.79429e-16)
(1.20866 0.346937 7.14625e-17)
(1.20554 0.377284 7.6782e-17)
(1.19958 0.409439 -1.65705e-16)
(1.18801 0.442774 -4.49775e-17)
(1.16628 0.473481 -1.96713e-16)
(1.12607 0.494998 -1.62694e-16)
(1.05334 0.496387 -2.41669e-16)
(0.925401 0.460356 1.36303e-16)
(0.706297 0.362249 0)
(0.337524 0.172518 -2.04298e-16)
(1.24228 0.345698 1.07927e-16)
(1.2417 0.373581 0)
(1.23735 0.402375 0)
(1.22623 0.430919 0)
(1.20325 0.455086 0)
(1.15947 0.46827 1.09278e-16)
(1.08037 0.46022 1.2177e-16)
(0.9433 0.415824 0)
(0.713773 0.315254 0)
(0.335538 0.1436 -9.15901e-17)
(1.27414 0.339006 -3.6129e-17)
(1.27522 0.363888 -8.79216e-22)
(1.27143 0.388745 -4.18968e-17)
(1.25943 0.411904 4.54932e-17)
(1.23362 0.429072 -4.97574e-17)
(1.18454 0.433824 1.37222e-16)
(1.09748 0.416881 -3.05871e-17)
(0.950447 0.365631 6.90314e-17)
(0.711279 0.265217 -1.97797e-17)
(0.328198 0.114467 9.21e-17)
(1.30318 0.327118 7.23719e-17)
(1.30489 0.348566 -3.8882e-17)
(1.30043 0.369039 0)
(1.28611 0.386418 -4.55693e-17)
(1.25584 0.39641 0)
(1.19984 0.39298 -5.49843e-17)
(1.10359 0.368081 -3.06393e-17)
(0.946319 0.311795 3.45777e-17)
(0.698965 0.21415 0)
(0.315984 0.0862583 -1.15355e-17)
(1.32836 0.310495 -5.42189e-17)
(1.32958 0.328204 3.88382e-17)
(1.32316 0.343986 0)
(1.3051 0.355388 0)
(1.26888 0.358283 4.97808e-17)
(1.20467 0.347231 -2.74587e-17)
(1.09849 0.315626 -3.06015e-17)
(0.931299 0.256344 -6.90738e-17)
(0.67771 0.163973 3.95845e-17)
(0.299658 0.0599749 -5.18364e-17)
(1.34901 0.289766 5.40166e-17)
(1.3487 0.303449 -5.77229e-22)
(1.33913 0.314246 -2.08764e-17)
(1.31595 0.31953 0)
(1.27242 0.315548 -2.47911e-17)
(1.19887 0.297676 -1.36719e-17)
(1.08229 0.260951 3.80913e-17)
(0.905823 0.201017 8.59623e-18)
(0.648197 0.116438 -4.43288e-17)
(0.279735 0.0364748 5.1588e-17)
(1.08993 0.276051 -4.1761e-16)
(1.11922 0.292809 1.03299e-16)
(1.14905 0.306298 0)
(1.17977 0.31558 1.02178e-16)
(1.21103 0.320386 -3.38162e-23)
(1.24191 0.32053 -1.5622e-18)
(1.27152 0.315976 7.77133e-19)
(1.29895 0.306881 -4.9915e-17)
(1.32335 0.293567 4.97575e-17)
(1.34397 0.276598 -2.4632e-17)
(1.10033 0.263546 2.08264e-16)
(1.12733 0.277589 0)
(1.15467 0.289047 0)
(1.18277 0.29706 1.00443e-16)
(1.21155 0.301323 1.57039e-18)
(1.24018 0.301667 -7.80396e-19)
(1.26787 0.29804 7.7644e-19)
(1.29386 0.290544 4.87181e-17)
(1.31743 0.279411 -4.93388e-17)
(1.33776 0.265157 2.46169e-17)
(1.11027 0.252991 0)
(1.13467 0.264782 -1.02936e-16)
(1.15951 0.274187 1.02002e-16)
(1.18506 0.280761 -1.01196e-16)
(1.21138 0.284225 0)
(1.23774 0.284428 -7.807e-19)
(1.26345 0.281321 -9.86707e-17)
(1.28789 0.274971 0)
(1.31046 0.265549 0)
(1.3303 0.253517 -2.46445e-17)
(1.11904 0.242782 0)
(1.14126 0.252568 1.18661e-21)
(1.16383 0.260212 -1.01919e-16)
(1.187 0.265518 1.01157e-16)
(1.21094 0.268247 7.852e-19)
(1.23506 0.26827 -1.00741e-16)
(1.25878 0.265542 -2.69578e-22)
(1.28157 0.260107 0)
(1.30299 0.252092 0)
(1.32215 0.241893 0)
(1.12629 0.232808 -1.0354e-16)
(1.14668 0.240952 2.05325e-16)
(1.16729 0.247159 7.95573e-19)
(1.18838 0.25139 -1.0191e-16)
(1.21018 0.253462 -7.8521e-19)
(1.23222 0.253276 -9.99939e-17)
(1.25403 0.250804 1.50133e-16)
(1.2752 0.246075 -3.87624e-19)
(1.29538 0.239188 -4.91026e-17)
(1.31373 0.230479 -2.47006e-17)
(1.13211 0.223033 2.0669e-16)
(1.15089 0.229878 -1.02527e-16)
(1.1698 0.234947 1.01751e-16)
(1.18909 0.238301 1.00292e-16)
(1.20902 0.239815 1.0208e-16)
(1.2292 0.239425 9.92466e-17)
(1.24926 0.237118 -4.98159e-17)
(1.26889 0.232926 -3.87951e-19)
(1.28783 0.226929 3.86731e-19)
(1.30527 0.219418 2.47284e-17)
(1.13665 0.213454 -1.03554e-16)
(1.15399 0.219249 -1.0199e-16)
(1.17141 0.223421 -1.01668e-16)
(1.18916 0.226083 -1.01044e-16)
(1.20745 0.227151 -9.97254e-17)
(1.22599 0.226589 9.84987e-17)
(1.24449 0.224405 -4.90679e-17)
(1.26269 0.22063 0)
(1.28043 0.21534 9.91787e-17)
(1.29695 0.208794 0)
(1.14005 0.204088 0)
(1.15611 0.209022 1.02255e-16)
(1.17222 0.212485 -1.01584e-16)
(1.18862 0.214605 7.89098e-19)
(1.20549 0.215331 -1.02082e-16)
(1.22259 0.214644 -1.00096e-16)
(1.23971 0.212565 5.06568e-17)
(1.25662 0.209131 -4.97419e-17)
(1.27323 0.204414 -9.92791e-17)
(1.28883 0.198649 0)
(1.14248 0.194958 -1.02762e-16)
(1.15737 0.199181 0)
(1.17233 0.20208 1.01502e-16)
(1.18754 0.203781 1.01756e-16)
(1.20318 0.20425 1.26151e-22)
(1.21903 0.203483 9.93481e-17)
(1.23491 0.201507 0)
(1.25067 0.198362 4.97836e-17)
(1.26624 0.194119 4.98838e-17)
(1.28097 0.188997 -2.50066e-17)
(1.14406 0.186084 1.0257e-16)
(1.15792 0.18972 -1.01985e-16)
(1.17184 0.192168 1.01418e-16)
(1.18601 0.193544 -1.00141e-16)
(1.20056 0.193826 1.99457e-16)
(1.21531 0.193016 -9.85994e-17)
(1.23012 0.191146 -7.80306e-19)
(1.24484 0.188256 -3.89259e-19)
(1.25945 0.184415 -4.93517e-17)
(1.27337 0.17983 2.48408e-17)
(1.14494 0.177482 0)
(1.15785 0.180632 1.01851e-16)
(1.17085 0.182717 -1.01335e-16)
(1.1841 0.183843 -7.88209e-19)
(1.19769 0.183991 -9.8944e-17)
(1.21147 0.183169 -7.82808e-19)
(1.22532 0.181409 -7.80773e-19)
(1.23912 0.178749 7.79186e-19)
(1.25287 0.175258 4.97906e-17)
(1.26602 0.171128 2.48691e-17)
(1.14521 0.169163 1.02585e-16)
(1.15729 0.17191 -3.97333e-19)
(1.16946 0.173704 0)
(1.18188 0.174635 0)
(1.19462 0.174692 7.85269e-19)
(1.20754 0.173881 -5.16824e-17)
(1.22054 0.172232 1.32073e-23)
(1.23352 0.169785 5.02994e-17)
(1.24649 0.166602 3.89387e-19)
(1.25894 0.162867 -2.48972e-17)
(1.145 0.161134 -1.01996e-16)
(1.15632 0.163547 -1.01582e-16)
(1.16774 0.165107 -1.01169e-16)
(1.17943 0.165888 -7.87616e-19)
(1.1914 0.165882 1.30403e-23)
(1.20355 0.165099 5.01333e-17)
(1.21579 0.163564 7.81749e-19)
(1.22804 0.161312 9.865e-23)
(1.24029 0.158406 0)
(1.2521 0.155017 0)
(1.14438 0.153399 -1.02203e-16)
(1.15502 0.155534 2.03293e-16)
(1.16578 0.156903 1.01087e-16)
(1.17679 0.157569 0)
(1.18808 0.157525 -9.97316e-17)
(1.19954 0.15678 4.93666e-17)
(1.2111 0.155357 0)
(1.22268 0.153289 -5.0384e-17)
(1.23429 0.150633 -2.45811e-17)
(1.24551 0.14755 0)
(1.14344 0.145957 1.02013e-16)
(1.15346 0.147861 -1.01711e-16)
(1.16361 0.149076 0)
(1.17402 0.149653 9.99524e-17)
(1.18469 0.149588 1.00518e-16)
(1.19553 0.148887 -1.00334e-16)
(1.20647 0.147574 -4.93106e-17)
(1.21745 0.145677 0)
(1.22848 0.143248 2.49966e-17)
(1.23916 0.140439 0)
(1.14224 0.138804 1.01427e-16)
(1.15171 0.140515 0)
(1.16131 0.141605 0)
(1.17117 0.142114 -9.99147e-17)
(1.18128 0.14204 -1.09311e-23)
(1.19155 0.141389 4.86159e-17)
(1.20194 0.140182 5.09073e-17)
(1.21237 0.138443 -3.9123e-19)
(1.22286 0.136222 1.95488e-19)
(1.23304 0.13366 1.95399e-19)
(1.14084 0.131936 -2.02477e-16)
(1.1498 0.133485 1.01049e-16)
(1.15891 0.134473 7.87796e-19)
(1.16827 0.13493 -7.86437e-19)
(1.17787 0.134856 -5.02595e-17)
(1.18763 0.134257 0)
(1.1975 0.13315 0)
(1.20743 0.131558 5.01201e-17)
(1.21743 0.129528 0)
(1.22715 0.127189 0)
(1.13928 0.125344 1.01446e-16)
(1.14779 0.126758 -1.01311e-16)
(1.15644 0.127661 7.87152e-19)
(1.16535 0.12808 -1.02197e-16)
(1.17448 0.128012 5.10451e-17)
(1.18377 0.127464 0)
(1.19318 0.126452 -7.84152e-19)
(1.20265 0.124997 -4.97704e-17)
(1.21219 0.123141 1.95886e-19)
(1.22149 0.121006 1.95845e-19)
(1.13761 0.119019 -1.01257e-16)
(1.1457 0.120319 3.93691e-19)
(1.15394 0.121153 -1.00674e-16)
(1.16243 0.121542 1.00587e-16)
(1.17114 0.121485 7.85308e-19)
(1.18 0.120988 -7.84927e-19)
(1.18898 0.120066 4.94323e-17)
(1.19803 0.118737 7.84452e-19)
(1.20715 0.11704 0)
(1.21606 0.11509 0)
(1.13585 0.112953 -3.92972e-19)
(1.14356 0.114156 1.01045e-16)
(1.15143 0.114932 1.00591e-16)
(1.15955 0.115298 -1.01334e-16)
(1.16786 0.115255 5.10456e-17)
(1.17633 0.114807 0)
(1.18492 0.113969 -5.02479e-17)
(1.19358 0.112756 -3.92553e-19)
(1.20231 0.111206 3.92567e-19)
(1.21085 0.109425 0)
(1.13404 0.107133 3.92812e-19)
(1.14141 0.108253 -1.00913e-16)
(1.14894 0.108981 -1.00509e-16)
(1.1567 0.109331 1.0051e-16)
(1.16466 0.109302 -1.00521e-16)
(1.17277 0.108902 0)
(1.18099 0.108141 0)
(1.18929 0.107036 -3.92884e-19)
(1.19767 0.10562 -2.49533e-17)
(1.20587 0.103993 2.53506e-17)
(1.13221 0.10155 9.99135e-17)
(1.13926 0.102598 -9.99965e-17)
(1.14647 0.103285 1.00427e-16)
(1.15391 0.103622 -5.10209e-17)
(1.16154 0.10361 7.85353e-19)
(1.16932 0.103254 0)
(1.17721 0.102566 -5.03099e-17)
(1.18518 0.10156 -3.93217e-19)
(1.19322 0.100267 2.55688e-17)
(1.20111 0.0987811 -2.51829e-17)
(1.13036 0.096191 0)
(1.13712 0.097176 1.00258e-16)
(1.14405 0.0978287 -1.00344e-16)
(1.1512 0.0981563 5.10014e-17)
(1.15852 0.0981601 4.94755e-17)
(1.16599 0.0978466 0)
(1.17358 0.0972254 4.95543e-17)
(1.18123 0.0963104 3.93557e-19)
(1.18897 0.0951309 1.96887e-19)
(1.19656 0.0937737 1.96968e-19)
(1.12852 0.0910454 3.90372e-19)
(1.13502 0.0919754 -3.91121e-19)
(1.14168 0.0925976 1.00262e-16)
(1.14856 0.0929178 7.84333e-19)
(1.15561 0.0929376 -5.02609e-17)
(1.16279 0.0926633 4.95332e-17)
(1.17009 0.0921041 -4.95849e-17)
(1.17746 0.0912729 2.40269e-17)
(1.18491 0.0901972 5.91258e-19)
(1.19223 0.0889581 -1.97194e-19)
(1.1267 0.086102 9.93621e-17)
(1.13295 0.0869828 3.9061e-19)
(1.13937 0.0875782 0)
(1.146 0.0878923 0)
(1.15279 0.0879273 2.36391e-23)
(1.15972 0.0876894 -5.03364e-17)
(1.16675 0.0871874 1.00019e-16)
(1.17386 0.0864332 3.94237e-19)
(1.18104 0.0854528 1.9729e-19)
(1.1881 0.0843219 1.28323e-17)
(1.12491 0.0813498 -9.91796e-17)
(1.13094 0.0821862 -3.901e-19)
(1.13714 0.0827572 -5.00489e-17)
(1.14354 0.0830661 0)
(1.15009 0.0831154 5.02611e-17)
(1.15678 0.082911 0)
(1.16357 0.0824615 -4.96461e-17)
(1.17042 0.0817781 -2.64349e-17)
(1.17735 0.0808852 3.94981e-19)
(1.18419 0.0798537 1.37893e-23)
(1.12316 0.076778 -9.97737e-17)
(1.12899 0.0775737 3.89591e-19)
(1.13498 0.0781223 5.0008e-17)
(1.14117 0.0784264 -7.83431e-19)
(1.1475 0.0784886 7.85333e-19)
(1.15397 0.0783151 0)
(1.16053 0.0779137 -7.88516e-19)
(1.16716 0.0772953 3.9489e-19)
(1.17386 0.0764828 1.97695e-19)
(1.18047 0.0755424 -1.24661e-17)
(1.12146 0.0723763 9.88158e-17)
(1.1271 0.0731341 3.89083e-19)
(1.13291 0.0736616 -7.80731e-19)
(1.1389 0.0739608 1.56627e-18)
(1.14503 0.0740346 -7.85333e-19)
(1.15129 0.0738891 0)
(1.15764 0.0735319 -2.52482e-17)
(1.16406 0.0729732 0)
(1.17054 0.0722346 0)
(1.17695 0.0713778 1.26786e-17)
(1.11982 0.0681344 4.95107e-17)
(1.12529 0.0688565 0)
(1.13092 0.0693638 0)
(1.13673 0.0696579 -7.82829e-19)
(1.14268 0.0697419 -4.94757e-17)
(1.14874 0.0696217 0)
(1.1549 0.0693048 2.60532e-17)
(1.16112 0.0688008 -1.18667e-18)
(1.16741 0.0681301 3.96198e-19)
(1.17362 0.0673502 -1.26932e-17)
(1.11824 0.0640426 -9.92263e-17)
(1.12355 0.0647307 3.88069e-19)
(1.12902 0.0652182 7.79452e-19)
(1.13466 0.0655066 -5.1647e-17)
(1.14044 0.0655992 1.02093e-16)
(1.14633 0.0655019 -7.87823e-19)
(1.15231 0.0652217 2.52793e-17)
(1.15835 0.0647679 -3.95889e-19)
(1.16444 0.0641595 1.98304e-19)
(1.17048 0.0634504 1.98561e-19)
(1.11672 0.0600915 4.89444e-17)
(1.12189 0.0607466 3.87564e-19)
(1.12721 0.0612146 0)
(1.1327 0.0614967 4.92804e-17)
(1.13832 0.0615963 -4.94756e-17)
(1.14405 0.0615194 2.52186e-17)
(1.14986 0.0612726 1.96769e-24)
(1.15573 0.0608647 -3.96226e-19)
(1.16165 0.0603136 3.97014e-19)
(1.16752 0.0596697 0)
(1.11528 0.056272 -3.84683e-19)
(1.12032 0.0568949 3.8706e-19)
(1.1255 0.0573433 0)
(1.13085 0.0576182 -5.00432e-17)
(1.13632 0.0577234 7.85323e-19)
(1.14189 0.0576644 -5.12424e-17)
(1.14755 0.0574479 -2.53105e-17)
(1.15327 0.057082 -2.57766e-17)
(1.15903 0.0565837 1.98713e-19)
(1.16474 0.0559997 1.99021e-19)
(1.11391 0.0525752 -4.95337e-17)
(1.11882 0.0531664 4.98656e-17)
(1.12388 0.0535949 0)
(1.1291 0.0538619 5.08055e-17)
(1.13443 0.0539711 -7.85326e-19)
(1.13987 0.0539279 2.52354e-17)
(1.14539 0.0537386 0)
(1.15096 0.0534112 2.50047e-17)
(1.15657 0.0529615 5.96747e-19)
(1.16214 0.0524327 -1.99252e-19)
(1.11261 0.0489927 4.86769e-17)
(1.11741 0.0495524 3.86011e-19)
(1.12236 0.0499608 7.76899e-19)
(1.12745 0.0502189 -7.81322e-19)
(1.13267 0.0503305 0)
(1.13797 0.050301 2.52438e-17)
(1.14336 0.0501363 -2.61337e-17)
(1.14879 0.0498441 2.58205e-17)
(1.15427 0.0494389 1.99123e-19)
(1.15971 0.0489611 1.29663e-17)
(1.11139 0.0455163 -4.89708e-17)
(1.11609 0.0460446 -4.93506e-17)
(1.12093 0.0464324 0)
(1.12592 0.0466807 0)
(1.13101 0.0467933 0)
(1.1362 0.0467755 -5.05044e-17)
(1.14146 0.0466329 7.92416e-19)
(1.14678 0.0463728 -2.66376e-17)
(1.15213 0.0460087 3.98654e-19)
(1.15744 0.045578 -1.27817e-17)
(1.11025 0.0421383 -3.81843e-19)
(1.11486 0.0426351 3.85052e-19)
(1.1196 0.0430016 -7.75624e-19)
(1.12448 0.0432392 7.80715e-19)
(1.12947 0.0433515 7.85312e-19)
(1.13456 0.0433435 -7.89392e-19)
(1.13971 0.0432207 2.45802e-17)
(1.1449 0.0429899 3.97919e-19)
(1.15014 0.0426637 3.99066e-19)
(1.15534 0.0422764 0)
(1.10919 0.038851 4.84117e-17)
(1.11371 0.0393161 3.84553e-19)
(1.11836 0.0396609 2.47997e-17)
(1.12315 0.0398868 7.80406e-19)
(1.12805 0.0399974 -4.91851e-24)
(1.13303 0.0399975 -7.89653e-19)
(1.13808 0.0398924 0)
(1.14317 0.0396883 0)
(1.1483 0.039397 1.27833e-17)
(1.1534 0.03905 0)
(1.10821 0.0356473 3.80501e-19)
(1.11265 0.0360804 -3.84054e-19)
(1.11722 0.0364029 -2.55537e-17)
(1.12193 0.0366161 4.71841e-24)
(1.12674 0.0367238 7.85309e-19)
(1.13163 0.0367304 2.52773e-17)
(1.13658 0.036641 2.54044e-17)
(1.14158 0.0364613 -3.98592e-19)
(1.1466 0.0362022 -1.23966e-17)
(1.15161 0.0358925 0)
(1.1073 0.0325202 -3.79811e-19)
(1.11168 0.0329208 3.83557e-19)
(1.11618 0.0332203 -2.4759e-17)
(1.12081 0.0334201 0)
(1.12553 0.0335236 0)
(1.13034 0.0335353 0)
(1.13521 0.0334597 -2.54201e-17)
(1.14012 0.0333023 -1.31648e-17)
(1.14506 0.033073 4.00306e-19)
(1.14997 0.0327979 0)
(1.10648 0.0294628 -3.79122e-19)
(1.11079 0.0298306 3.8306e-19)
(1.11523 0.0301065 2.39656e-17)
(1.11978 0.0302919 4.53427e-24)
(1.12444 0.0303902 7.85299e-19)
(1.12917 0.0304056 0)
(1.13396 0.0303422 7.94865e-19)
(1.13879 0.0302052 1.15789e-17)
(1.14365 0.0300035 -1.24223e-17)
(1.14848 0.0297607 0)
(1.10574 0.0264687 0)
(1.10999 0.0268031 2.4484e-17)
(1.11437 0.0270547 2.47183e-17)
(1.11886 0.027225 -7.79188e-19)
(1.12345 0.0273171 7.85294e-19)
(1.12812 0.0273349 0)
(1.13284 0.0272823 1.35211e-17)
(1.1376 0.0271639 -1.19885e-18)
(1.14238 0.0269878 1.30369e-17)
(1.14714 0.0267751 2.01115e-19)
(1.10507 0.0235314 -3.77752e-19)
(1.10927 0.0238319 -2.40703e-17)
(1.1136 0.0240586 -2.39262e-17)
(1.11804 0.024213 -4.3863e-24)
(1.12257 0.024298 -7.85288e-19)
(1.12717 0.0243172 0)
(1.13183 0.024274 -1.35294e-17)
(1.13653 0.0241727 3.9996e-19)
(1.14124 0.0240204 6.0233e-19)
(1.14594 0.0238358 -2.0135e-19)
(1.10448 0.0206446 3.77069e-19)
(1.10864 0.0209108 -3.81575e-19)
(1.11292 0.021112 0)
(1.11731 0.0212498 0)
(1.12179 0.0213268 0)
(1.12634 0.0213464 -1.26595e-17)
(1.13095 0.0213115 -1.27415e-17)
(1.13558 0.0212259 -4.00297e-19)
(1.14024 0.0210959 2.00987e-19)
(1.14488 0.0209377 2.01586e-19)
(1.10397 0.0178022 -3.76389e-19)
(1.10809 0.0180335 3.81082e-19)
(1.11234 0.0182087 1.30993e-17)
(1.11668 0.0183293 -1.32306e-17)
(1.12112 0.0183977 0)
(1.12562 0.0184168 2.53273e-17)
(1.13018 0.0183891 1.27493e-17)
(1.13476 0.018318 6.00961e-18)
(1.13936 0.0182088 -6.23703e-18)
(1.14395 0.0180756 2.01822e-19)
(1.10354 0.0149981 -1.23985e-17)
(1.10763 0.015194 1.25594e-17)
(1.11184 0.0153428 -1.23186e-17)
(1.11615 0.0154457 2.4117e-17)
(1.12054 0.0155048 7.85267e-19)
(1.12501 0.0155227 -2.53357e-17)
(1.12952 0.0155014 6.3786e-18)
(1.13406 0.0154437 -6.81672e-18)
(1.13862 0.0153541 6.84774e-18)
(1.14316 0.0152444 0)
(1.10318 0.0122263 1.23761e-17)
(1.10724 0.0123864 -3.80102e-19)
(1.11142 0.0125084 -7.69278e-19)
(1.11571 0.0125932 -1.16649e-17)
(1.12007 0.0126426 0)
(1.1245 0.0126586 1.2672e-17)
(1.12898 0.0126429 -7.18036e-18)
(1.13348 0.0125977 -5.21725e-18)
(1.138 0.0125266 -6.04843e-19)
(1.14251 0.0124391 2.02297e-19)
(1.10289 0.00948078 -1.19795e-17)
(1.10694 0.00960498 -2.14155e-24)
(1.1111 0.00969988 7.68646e-19)
(1.11535 0.00976631 -1.55471e-18)
(1.11969 0.00980558 1.5705e-18)
(1.1241 0.0098191 -7.13033e-18)
(1.12855 0.00980826 5.58818e-18)
(1.13302 0.00977465 3.61504e-18)
(1.13751 0.00972107 3.83467e-18)
(1.14199 0.00965483 -2.02535e-19)
(1.10268 0.00675576 1.15843e-17)
(1.10671 0.00684379 -1.17527e-17)
(1.11085 0.00691143 0)
(1.11509 0.00695918 0)
(1.11941 0.00698787 7.85239e-19)
(1.1238 0.00699844 5.54763e-18)
(1.12822 0.00699182 -6.39043e-18)
(1.13268 0.00696909 2.81411e-18)
(1.13714 0.00693221 -3.03053e-18)
(1.14159 0.0068863 2.02773e-19)
(1.10254 0.00404535 3.73015e-19)
(1.10656 0.00409693 -3.78631e-19)
(1.11069 0.00413696 3.06954e-18)
(1.11492 0.00416561 -7.76737e-19)
(1.11923 0.00418323 3.14093e-18)
(1.1236 0.00419032 -2.37834e-18)
(1.12801 0.00418738 0)
(1.13244 0.00417498 -4.02359e-19)
(1.13689 0.00415426 4.04494e-19)
(1.14133 0.00412816 -8.12046e-19)
(1.10247 0.00134548 -3.73373e-19)
(1.10649 0.00136151 3.7922e-19)
(1.11061 0.00137423 -3.84499e-18)
(1.11484 0.00138359 7.78767e-19)
(1.11914 0.00138963 -1.57528e-18)
(1.1235 0.00139247 1.59106e-18)
(1.1279 0.00139222 0)
(1.13233 0.00138903 -4.04011e-19)
(1.13677 0.00138321 2.03124e-19)
(1.1412 0.00137568 1.01962e-18)
(2.19554 0.0515846 0)
(1.1429 0.0087601 0)
(0.957468 0.016477 0)
(1.05215 0.040394 0)
(1.07574 0.0502137 0)
(1.06697 0.0565614 0)
(1.06275 0.0651343 0)
(1.06191 0.0747447 0)
(1.06075 0.084672 0)
(1.05914 0.0951756 0)
(1.05755 0.106502 0)
(1.05613 0.118764 0)
(1.05496 0.13206 0)
(1.0542 0.146505 0)
(1.05402 0.162211 0)
(1.05464 0.179269 0)
(1.05632 0.197721 0)
(1.05945 0.217507 0)
(1.06455 0.238287 0)
(1.07122 0.258682 0)
(2.20504 0.0325456 0)
(1.1223 0.0147344 0)
(0.961311 0.0224491 0)
(1.05894 0.0403452 0)
(1.077 0.049987 0)
(1.06774 0.0573485 0)
(1.06474 0.0661422 0)
(1.06452 0.0757189 0)
(1.0638 0.0856441 0)
(1.06281 0.0961149 0)
(1.06195 0.107322 0)
(1.06133 0.119363 0)
(1.06106 0.132323 0)
(1.06126 0.146294 0)
(1.06214 0.161358 0)
(1.0639 0.177566 0)
(1.06682 0.194915 0)
(1.07126 0.213246 0)
(1.07763 0.232001 0)
(1.08503 0.249568 0)
(2.20981 0.0187918 0)
(1.11077 0.0195264 0)
(0.959745 0.0271111 0)
(1.06018 0.0398609 0)
(1.07678 0.0494179 0)
(1.06781 0.0577458 0)
(1.06579 0.0667157 0)
(1.06624 0.0762126 0)
(1.0661 0.0860895 0)
(1.06577 0.0964795 0)
(1.06564 0.107515 0)
(1.0658 0.119281 0)
(1.06635 0.131849 0)
(1.06744 0.145288 0)
(1.06924 0.15965 0)
(1.07197 0.174953 0)
(1.07586 0.191152 0)
(1.08121 0.208042 0)
(1.08837 0.225025 0)
(1.09653 0.240615 0)
(2.21339 0.0126423 0)
(1.10469 0.0199767 0)
(0.957061 0.0281466 0)
(1.05948 0.0390281 0)
(1.07593 0.0487088 0)
(1.06737 0.0576068 0)
(1.06613 0.066733 0)
(1.06726 0.0762178 0)
(1.06774 0.0860559 0)
(1.06808 0.0963472 0)
(1.06865 0.107194 0)
(1.06955 0.118671 0)
(1.07087 0.130839 0)
(1.07275 0.143745 0)
(1.07536 0.157421 0)
(1.0789 0.171861 0)
(1.08356 0.186994 0)
(1.08961 0.202611 0)
(1.09731 0.218146 0)
(1.10603 0.232205 0)
(2.21667 0.010003 0)
(1.10154 0.019241 0)
(0.954925 0.0278493 0)
(1.05851 0.038046 0)
(1.07501 0.047762 0)
(1.06675 0.0569559 0)
(1.06609 0.0662093 0)
(1.06782 0.0757045 0)
(1.0689 0.085494 0)
(1.06985 0.0956646 0)
(1.07108 0.106303 0)
(1.07265 0.117473 0)
(1.07466 0.129224 0)
(1.07724 0.141592 0)
(1.08055 0.154589 0)
(1.08477 0.168194 0)
(1.09006 0.182325 0)
(1.09663 0.196775 0)
(1.10471 0.211022 0)
(1.1138 0.223754 0)
(2.21995 0.00882884 0)
(1.10007 0.0185484 0)
(0.953544 0.0272511 0)
(1.05776 0.0370231 0)
(1.07429 0.0466482 0)