/*--------------------------------*- C++ -*----------------------------------*\
  =========                 |
  \\      /  F ield         | OpenFOAM: The Open Source CFD Toolbox
   \\    /   O peration     | Website:  https://openfoam.org
    \\  /    A nd           | Version:  6
     \\/     M anipulation  |
\*---------------------------------------------------------------------------*/
FoamFile
{
    version     2.0;
    format      ascii;
    class       surfaceScalarField;
    location    "1.35";
    object      phi;
}
// * * * * * * * * * * * * * * * * * * * * * * * * * * * * * * * * * * * * * //

dimensions      [0 3 -1 0 0 0 0];

internalField   nonuniform List<scalar> 
11030
(
0.000120681
5.45725e-07
0.00012076
-7.97737e-08
0.00012054
2.20549e-07
0.000120018
5.21433e-07
0.000119554
4.64338e-07
0.000119144
4.09714e-07
0.000118696
4.48654e-07
0.000118178
5.17462e-07
0.000117588
5.89828e-07
0.000116916
6.72078e-07
0.000116146
7.69886e-07
0.000115262
8.84353e-07
0.000114246
1.01643e-06
0.000113078
1.1681e-06
0.000111736
1.34187e-06
0.000110195
1.54027e-06
0.00010843
1.76514e-06
0.000106414
2.01598e-06
0.000104127
2.28681e-06
2.55644e-06
0.000101571
0.000121597
1.53842e-07
0.00012117
3.47812e-07
0.000120514
8.76582e-07
0.000119998
1.03676e-06
0.000119539
9.23901e-07
0.000119055
8.93441e-07
0.000118527
9.76905e-07
0.000117945
1.09896e-06
0.000117297
1.238e-06
0.000116566
1.40301e-06
0.000115736
1.59999e-06
0.00011479
1.83055e-06
0.000113709
2.09695e-06
0.000112474
2.40311e-06
0.000111062
2.75378e-06
0.000109449
3.15376e-06
0.000107607
3.60652e-06
0.000105513
4.11089e-06
0.000103145
4.65468e-06
5.19991e-06
0.000100501
0.000121166
1.1547e-07
0.000120976
5.38714e-07
0.000120485
1.36721e-06
0.000119952
1.5697e-06
0.000119452
1.4236e-06
0.000118936
1.40997e-06
0.000118369
1.5436e-06
0.000117742
1.72629e-06
0.000117043
1.9365e-06
0.000116259
2.18735e-06
0.000115373
2.48618e-06
0.000114368
2.83516e-06
0.000113227
3.23778e-06
0.000111931
3.69976e-06
0.000110456
4.22798e-06
0.000108781
4.82939e-06
0.000106878
5.50905e-06
0.000104724
6.26523e-06
0.000102299
7.08004e-06
7.90143e-06
9.9597e-05
0.000120984
1.6952e-07
0.000120767
7.55515e-07
0.000120318
1.81611e-06
0.00011981
2.0781e-06
0.000119311
1.92175e-06
0.000118785
1.93661e-06
0.000118198
2.13047e-06
0.000117541
2.38341e-06
0.000116805
2.67264e-06
0.000115977
3.01534e-06
0.000115042
3.42045e-06
0.000113987
3.89076e-06
0.000112794
4.43095e-06
0.000111445
5.04846e-06
0.000109921
5.75213e-06
0.000108199
6.55093e-06
0.000106257
7.45138e-06
0.000104071
8.45123e-06
0.000101624
9.52728e-06
1.06156e-05
9.89095e-05
0.000120812
2.98807e-07
0.000120547
1.0206e-06
0.000120114
2.24838e-06
0.000119631
2.56121e-06
0.000119145
2.4075e-06
0.000118618
2.46373e-06
0.00011802
2.72901e-06
0.000117341
3.06253e-06
0.000116574
3.43969e-06
0.000115708
3.88119e-06
0.000114731
4.39728e-06
0.00011363
4.99128e-06
0.000112392
5.66893e-06
0.000111002
6.43922e-06
0.000109441
7.31276e-06
0.000107692
8.30021e-06
0.000105734
9.40936e-06
0.000103548
1.06374e-05
0.000101119
1.1956e-05
1.32914e-05
9.8443e-05
0.000120618
5.17432e-07
0.000120304
1.33479e-06
0.0001199
2.65262e-06
0.000119452
3.00923e-06
0.000118984
2.87551e-06
0.000118458
2.98917e-06
0.000117848
3.33897e-06
0.000117146
3.76446e-06
0.000116347
4.23889e-06
0.000115442
4.78583e-06
0.000114423
5.41658e-06
0.00011328
6.13484e-06
0.000112001
6.9473e-06
0.000110576
7.86434e-06
0.000108991
8.89798e-06
0.000107231
1.00603e-05
0.00010528
1.13599e-05
0.000103124
1.27935e-05
0.000100752
1.43281e-05
1.58827e-05
9.81608e-05
0.000120353
8.88976e-07
0.000119999
1.68899e-06
0.000119683
2.9682e-06
0.000119299
3.39325e-06
0.00011885
3.32445e-06
0.000118321
3.5186e-06
0.000117691
3.96817e-06
0.000116957
4.49866e-06
0.000116116
5.07974e-06
0.000115165
5.7373e-06
0.000114098
6.48396e-06
0.000112908
7.32403e-06
0.00011159
8.26517e-06
0.000110136
9.31891e-06
0.000108535
1.04984e-05
0.000106779
1.18166e-05
0.000104856
1.32829e-05
0.000102756
1.48934e-05
0.000100473
1.66118e-05
1.83532e-05
9.80021e-05
0.000119876
1.61762e-06
0.000119532
2.03242e-06
0.000119475
3.02482e-06
0.000119205
3.66353e-06
0.00011876
3.76938e-06
0.000118209
4.07018e-06
0.000117543
4.63388e-06
0.000116758
5.2836e-06
0.000115858
5.97929e-06
0.000114847
6.74919e-06
0.000113722
7.60897e-06
0.000112481
8.56428e-06
0.000111123
9.62382e-06
0.000109642
1.08001e-05
0.000108033
1.21068e-05
0.000106292
1.35574e-05
0.000104414
1.51615e-05
0.000102392
1.69155e-05
0.000100221
1.87821e-05
2.06804e-05
9.78943e-05
0.000118697
3.4074e-06
0.000118821
1.90854e-06
0.000119411
2.43498e-06
0.000119235
3.83982e-06
0.000118719
4.28455e-06
0.000118108
4.68177e-06
0.000117376
5.36594e-06
0.000116512
6.14768e-06
0.000115531
6.96042e-06
0.000114442
7.838e-06
0.000113248
8.80281e-06
0.00011195
9.86259e-06
0.000110547
1.10268e-05
0.000109039
1.23081e-05
0.000107425
1.37203e-05
0.000105706
1.5276e-05
0.000103883
1.69848e-05
0.000101954
1.88446e-05
9.99167e-05
2.08193e-05
2.28274e-05
9.77697e-05
0.000116644
7.21564e-06
0.000118729
-1.76992e-07
0.00011989
1.27389e-06
0.00011944
4.29071e-06
0.000118728
4.99581e-06
0.000117995
5.41538e-06
0.000117145
6.21564e-06
0.000116169
7.12345e-06
0.000115089
8.04093e-06
0.000113913
9.01329e-06
0.000112646
1.00705e-05
0.000111287
1.12214e-05
0.000109838
1.24754e-05
0.000108302
1.38443e-05
0.000106682
1.53401e-05
0.000104985
1.69732e-05
0.00010322
1.87501e-05
0.000101395
2.06691e-05
9.94993e-05
2.27155e-05
9.75124e-05
2.48143e-05
9.09197e-05
1.06513e-05
8.01206e-05
1.07991e-05
6.91579e-05
1.09627e-05
5.80247e-05
1.11332e-05
4.67325e-05
1.12922e-05
3.53513e-05
1.13812e-05
2.40942e-05
1.1257e-05
1.34861e-05
1.06081e-05
4.64625e-06
8.83985e-06
4.64625e-06
8.99284e-05
2.12242e-05
7.92036e-05
2.15239e-05
6.83201e-05
2.18461e-05
5.72733e-05
2.21801e-05
4.60784e-05
2.24871e-05
3.48104e-05
2.26492e-05
2.36848e-05
2.23827e-05
1.32238e-05
2.10691e-05
4.58397e-06
1.74797e-05
9.23022e-06
8.90903e-05
3.17309e-05
7.84305e-05
3.21837e-05
6.76164e-05
3.26603e-05
5.66453e-05
3.31512e-05
4.55343e-05
3.3598e-05
3.43617e-05
3.38219e-05
2.33471e-05
3.33972e-05
1.30165e-05
3.13997e-05
4.49971e-06
2.59965e-05
1.37299e-05
8.84455e-05
4.21948e-05
7.78308e-05
4.27984e-05
6.7068e-05
4.3423e-05
5.61547e-05
4.40646e-05
4.51081e-05
4.46447e-05
3.4008e-05
4.4922e-05
2.30778e-05
4.43274e-05
1.2846e-05
4.16315e-05
4.43131e-06
3.44112e-05
1.81612e-05
8.79998e-05
5.26381e-05
7.74083e-05
5.33898e-05
6.66761e-05
5.41552e-05
5.5799e-05
5.49417e-05
4.4793e-05
5.56506e-05
3.37393e-05
5.59757e-05
2.28652e-05
5.52014e-05
1.27047e-05
5.17921e-05
4.37176e-06
4.27441e-05
2.2533e-05
8.7721e-05
6.30778e-05
7.71344e-05
6.39764e-05
6.64137e-05
6.48759e-05
5.55514e-05
6.5804e-05
4.4562e-05
6.66401e-05
3.35288e-05
6.7009e-05
2.26852e-05
6.6045e-05
1.25743e-05
6.1903e-05
4.31156e-06
5.10068e-05
2.68445e-05
8.75515e-05
7.35284e-05
7.69545e-05
7.45734e-05
6.6229e-05
7.56015e-05
5.53615e-05
7.66715e-05
4.43659e-05
7.76357e-05
3.333e-05
7.80448e-05
2.24978e-05
7.68773e-05
1.24259e-05
7.19748e-05
4.23623e-06
5.91965e-05
3.10808e-05
8.74123e-05
8.40104e-05
7.67896e-05
8.51961e-05
6.60443e-05
8.63467e-05
5.51523e-05
8.75635e-05
4.41306e-05
8.86574e-05
3.30759e-05
8.90995e-05
2.22476e-05
8.77056e-05
1.22213e-05
8.20011e-05
4.12684e-06
6.7291e-05
3.52076e-05
8.71879e-05
9.45921e-05
7.65191e-05
9.58649e-05
6.57372e-05
9.71286e-05
5.48042e-05
9.84964e-05
4.37477e-05
9.97139e-05
3.26755e-05
0.000100172
2.18653e-05
9.85157e-05
1.19122e-05
9.19542e-05
3.95694e-06
7.52462e-05
3.91646e-05
8.66199e-05
0.000105485
7.59198e-05
0.000106565
6.50863e-05
0.000107962
5.412e-05
0.000109463
4.30559e-05
0.000110778
3.20067e-05
0.000111221
2.12629e-05
0.000109259
1.14311e-05
0.000101786
3.67343e-06
8.30039e-05
4.2838e-05
3.33856e-05
0.000111184
-3.90855e-05
2.77138e-05
0.000112237
2.2127e-05
0.000113549
1.66728e-05
0.000114917
1.15021e-05
0.000115949
6.88286e-06
0.00011584
3.19167e-06
0.000112951
8.18619e-07
0.000104159
-7.95915e-08
8.39021e-05
4.27584e-05
2.71316e-05
0.000116302
-3.22491e-05
2.19942e-05
0.000117374
1.69491e-05
0.000118594
1.21093e-05
0.000119757
7.64519e-06
0.000120413
3.82516e-06
0.00011966
9.96939e-07
0.000115779
-5.11408e-07
0.000105667
-6.35282e-07
8.4026e-05
4.21231e-05
2.08888e-05
0.000120871
-2.54575e-05
1.63078e-05
0.000121955
1.18474e-05
0.000123054
7.65098e-06
0.000123953
3.91439e-06
0.000124149
9.0893e-07
0.000122666
-1.0459e-06
0.000117734
-1.68973e-06
0.000106311
-1.07007e-06
8.34063e-05
4.1053e-05
1.47211e-05
0.0001249
-1.87503e-05
1.07158e-05
0.000125961
6.86751e-06
0.000126903
3.34117e-06
0.00012748
3.51794e-07
0.000127139
-1.82954e-06
0.000124847
-2.91481e-06
0.000118819
-2.71895e-06
0.000106115
-1.4173e-06
8.21047e-05
3.96357e-05
8.67624e-06
0.000128389
-1.21657e-05
5.25608e-06
0.000129381
2.04047e-06
0.000130118
-7.92225e-07
0.000130312
-3.01644e-06
0.000129363
-4.36865e-06
0.000126199
-4.5996e-06
0.00011905
-3.60628e-06
0.000105122
-1.69271e-06
8.01911e-05
3.7943e-05
2.78551e-06
0.000131337
-5.73306e-06
-4.17573e-08
0.000132208
-2.60867e-06
0.000132685
-4.72882e-06
0.000132432
-6.17438e-06
0.000130809
-6.69808e-06
0.000126723
-6.09787e-06
0.00011845
-4.35811e-06
0.000103382
-1.90495e-06
7.77379e-05
3.60381e-05
-2.93009e-06
0.000133738
5.2897e-07
-5.15624e-06
0.000134434
-7.06055e-06
0.000134589
-8.45293e-06
0.000133825
-9.11103e-06
0.000131467
-8.81274e-06
0.000126425
-7.41145e-06
0.000117048
-4.98202e-06
0.000100953
-2.06228e-06
7.48182e-05
3.39758e-05
-8.45867e-06
0.000135586
6.61071e-06
-1.00734e-05
0.000136049
-1.13011e-05
0.000135817
-1.19524e-05
0.000134476
-1.18177e-05
0.000131332
-1.07091e-05
0.000125316
-8.54305e-06
0.000114882
-5.48567e-06
9.78955e-05
-2.17209e-06
7.15046e-05
3.18037e-05
-1.37939e-05
0.000136872
1.25081e-05
-1.4783e-05
0.000137038
-1.53168e-05
0.000136351
-1.52119e-05
0.000134371
-1.42801e-05
0.0001304
-1.23775e-05
0.000123413
-9.49111e-06
0.000111996
-5.87571e-06
9.42801e-05
-2.24214e-06
6.78711e-05
2.95616e-05
-1.89265e-05
1.82262e-05
0.000137572
-1.92587e-05
0.00013737
-1.90671e-05
0.000136159
-1.81835e-05
0.000133488
-1.64525e-05
0.000128669
-1.37858e-05
0.000120747
-1.02453e-05
0.000108455
-6.16213e-06
9.0197e-05
-2.2898e-06
6.39987e-05
2.72718e-05
8.55745e-05
-3.9686e-05
-8.4974e-05
8.64012e-05
-3.30758e-05
8.74273e-05
-2.64836e-05
8.85957e-05
-1.99186e-05
8.9865e-05
-1.34351e-05
9.11879e-05
-7.05588e-06
9.25132e-05
-7.96367e-07
9.37904e-05
5.3335e-06
9.49719e-05
1.13266e-05
1.71956e-05
9.60024e-05
8.63813e-05
-4.01063e-05
-8.5961e-05
8.69926e-05
-3.36871e-05
8.78034e-05
-2.72944e-05
8.87709e-05
-2.08861e-05
8.98573e-05
-1.45215e-05
9.10219e-05
-8.22053e-06
9.22214e-05
-1.99582e-06
9.34123e-05
4.14258e-06
9.4553e-05
1.01859e-05
1.61506e-05
9.55981e-05
8.70599e-05
-4.03169e-05
-8.68492e-05
8.748e-05
-3.41073e-05
8.80946e-05
-2.7909e-05
8.88737e-05
-2.16651e-05
8.97848e-05
-1.54326e-05
9.07938e-05
-9.22957e-06
9.18648e-05
-3.06681e-06
9.29617e-05
3.04572e-06
9.40491e-05
9.0984e-06
1.51087e-05
9.5091e-05
8.76404e-05
-4.03728e-05
-8.75845e-05
8.78955e-05
-3.43623e-05
8.83354e-05
-2.83488e-05
8.89402e-05
-2.227e-05
8.96848e-05
-1.61772e-05
9.05421e-05
-1.00869e-05
9.14835e-05
-4.00821e-06
9.248e-05
2.04926e-06
9.35025e-05
8.07585e-06
1.40885e-05
9.45228e-05
8.81168e-05
-4.03055e-05
-8.81841e-05
8.82336e-05
-3.44791e-05
8.85224e-05
-2.86377e-05
8.89722e-05
-2.27198e-05
8.95647e-05
-1.67697e-05
9.02798e-05
-1.0802e-05
9.10958e-05
-4.82416e-06
9.19901e-05
1.1549e-06
9.29399e-05
7.1261e-06
1.31054e-05
9.3923e-05
8.84905e-05
-4.01308e-05
-8.86652e-05
8.84884e-05
-3.4477e-05
8.86479e-05
-2.87972e-05
8.8963e-05
-2.3035e-05
8.94213e-05
-1.7228e-05
9.00081e-05
-1.13888e-05
9.07076e-05
-5.52366e-06
9.15031e-05
3.59401e-07
9.2377e-05
6.25219e-06
1.21698e-05
9.33126e-05
8.87705e-05
-3.98604e-05
-8.90409e-05
8.86646e-05
-3.43712e-05
8.87127e-05
-2.88452e-05
8.89118e-05
-2.32341e-05
8.92533e-05
-1.75694e-05
8.97267e-05
-1.18622e-05
9.03209e-05
-6.11784e-06
9.10239e-05
-3.43556e-07
9.18226e-05
5.45343e-06
1.12875e-05
9.2705e-05
8.89681e-05
-3.95048e-05
-8.93238e-05
8.8771e-05
-3.4174e-05
8.87226e-05
-2.87968e-05
8.88216e-05
-2.33331e-05
8.90618e-05
-1.78097e-05
8.9436e-05
-1.22364e-05
8.99363e-05
-6.61819e-06
9.05545e-05
-9.61741e-07
9.12813e-05
4.72663e-06
1.04606e-05
9.21082e-05
8.90948e-05
-3.90732e-05
-8.95264e-05
8.88171e-05
-3.38964e-05
8.86846e-05
-2.86643e-05
8.86967e-05
-2.33452e-05
8.8849e-05
-1.7962e-05
8.91365e-05
-1.25239e-05
8.95539e-05
-7.03555e-06
9.00955e-05
-1.50331e-06
9.07549e-05
4.06717e-06
9.68889e-06
9.15267e-05
8.91613e-05
-3.85739e-05
-8.96606e-05
8.88123e-05
-3.35473e-05
8.86059e-05
-2.84579e-05
8.85422e-05
-2.32814e-05
8.8618e-05
-1.80379e-05
8.88297e-05
-1.27356e-05
8.91739e-05
-7.37968e-06
8.96467e-05
-1.97615e-06
9.02441e-05
3.46978e-06
8.97038e-06
9.09626e-05
8.91776e-05
-3.80144e-05
-8.9737e-05
8.87652e-05
-3.3135e-05
8.84937e-05
-2.81864e-05
8.83634e-05
-2.31511e-05
8.83721e-05
-1.80466e-05
8.85173e-05
-1.28808e-05
8.87967e-05
-7.65911e-06
8.92081e-05
-2.38747e-06
8.97487e-05
2.92915e-06
8.30222e-06
9.04168e-05
8.91524e-05
-3.74013e-05
-8.97655e-05
8.86838e-05
-3.26664e-05
8.83545e-05
-2.78572e-05
8.81654e-05
-2.29619e-05
8.81149e-05
-1.79961e-05
8.82014e-05
-1.29673e-05
8.84234e-05
-7.88112e-06
8.87796e-05
-2.74369e-06
8.92685e-05
2.44021e-06
7.68115e-06
8.98896e-05
8.90936e-05
-3.67403e-05
-8.97546e-05
8.85748e-05
-3.21475e-05
8.81942e-05
-2.74766e-05
8.79528e-05
-2.27206e-05
8.78498e-05
-1.7893e-05
8.78841e-05
-1.30016e-05
8.80549e-05
-8.05195e-06
8.83616e-05
-3.0504e-06
8.88035e-05
1.99832e-06
7.10384e-06
8.93808e-05
8.90079e-05
-3.60365e-05
-8.97117e-05
8.84442e-05
-3.15838e-05
8.80178e-05
-2.70502e-05
8.77298e-05
-2.24325e-05
8.75798e-05
-1.77431e-05
8.75675e-05
-1.29892e-05
8.76924e-05
-8.17688e-06
8.79545e-05
-3.31245e-06
8.83535e-05
1.5993e-06
6.56708e-06
8.88902e-05
8.89011e-05
-3.52943e-05
-8.96432e-05
8.82971e-05
-3.09798e-05
8.78296e-05
-2.65827e-05
8.74998e-05
-2.21027e-05
8.73078e-05
-1.75511e-05
8.72535e-05
-1.29349e-05
8.73371e-05
-8.26044e-06
8.75586e-05
-3.53402e-06
8.79185e-05
1.23949e-06
6.06786e-06
8.84177e-05
8.87779e-05
-3.45177e-05
-8.95545e-05
8.81378e-05
-3.03397e-05
8.76333e-05
-2.60782e-05
8.72659e-05
-2.17353e-05
8.7036e-05
-1.73212e-05
8.69438e-05
-1.28428e-05
8.69899e-05
-8.30652e-06
8.71746e-05
-3.71875e-06
8.74985e-05
9.15605e-07
5.60342e-06
8.79629e-05
8.86424e-05
-3.371e-05
-8.945e-05
8.79697e-05
-2.9667e-05
8.74319e-05
-2.55405e-05
8.70305e-05
-2.13339e-05
8.67663e-05
-1.70569e-05
8.66399e-05
-1.27163e-05
8.66518e-05
-8.31849e-06
8.68029e-05
-3.86981e-06
8.70937e-05
6.24777e-07
5.17126e-06
8.75259e-05
8.84979e-05
-3.28743e-05
-8.93336e-05
8.77958e-05
-2.8965e-05
8.72279e-05
-2.49725e-05
8.67958e-05
-2.09018e-05
8.65005e-05
-1.67616e-05
8.63428e-05
-1.25587e-05
8.63237e-05
-8.29932e-06
8.64438e-05
-3.98997e-06
8.67042e-05
3.64439e-07
4.76911e-06
8.71063e-05
8.83472e-05
-3.20133e-05
-8.92082e-05
8.76186e-05
-2.82364e-05
8.70234e-05
-2.43773e-05
8.65634e-05
-2.04418e-05
8.62398e-05
-1.6438e-05
8.60536e-05
-1.23725e-05
8.60059e-05
-8.25163e-06
8.60977e-05
-4.08171e-06
8.63298e-05
1.32296e-07
4.39487e-06
8.67041e-05
8.81926e-05
-3.11294e-05
-8.90765e-05
8.744e-05
-2.74838e-05
8.68201e-05
-2.37574e-05
8.63347e-05
-1.99564e-05
8.59853e-05
-1.60886e-05
8.57731e-05
-1.21603e-05
8.56992e-05
-8.17776e-06
8.57647e-05
-4.14726e-06
8.59708e-05
-7.37213e-08
4.04667e-06
8.6319e-05
8.8036e-05
-3.02247e-05
-8.89407e-05
8.72616e-05
-2.67095e-05
8.66192e-05
-2.3115e-05
8.61107e-05
-1.94479e-05
8.57378e-05
-1.57157e-05
8.55017e-05
-1.19242e-05
8.54037e-05
-8.0798e-06
8.54451e-05
-4.18861e-06
8.56268e-05
-2.55494e-07
3.72274e-06
8.59508e-05
8.7879e-05
-2.93012e-05
-8.88025e-05
8.70848e-05
-2.59153e-05
8.6422e-05
-2.24521e-05
8.58924e-05
-1.89184e-05
8.54979e-05
-1.53211e-05
8.52399e-05
-1.16662e-05
8.51198e-05
-7.95966e-06
8.51387e-05
-4.20757e-06
8.5298e-05
-4.1474e-07
3.42149e-06
8.55992e-05
8.77228e-05
-2.83607e-05
-8.86634e-05
8.69107e-05
-2.51032e-05
8.62292e-05
-2.17706e-05
8.56805e-05
-1.83696e-05
8.52662e-05
-1.49069e-05
8.49881e-05
-1.1388e-05
8.48474e-05
-7.81904e-06
8.48457e-05
-4.2058e-06
8.4984e-05
-5.53037e-07
3.14141e-06
8.5264e-05
8.75686e-05
-2.74047e-05
-8.85246e-05
8.67402e-05
-2.42748e-05
8.60417e-05
-2.10721e-05
8.54754e-05
-1.78033e-05
8.5043e-05
-1.44745e-05
8.47463e-05
-1.10913e-05
8.45868e-05
-7.65953e-06
8.45658e-05
-4.18482e-06
8.46847e-05
-6.71846e-07
2.88112e-06
8.49449e-05
8.74173e-05
-2.64346e-05
-8.83874e-05
8.6574e-05
-2.34316e-05
8.58601e-05
-2.03581e-05
8.52776e-05
-1.72208e-05
8.48286e-05
-1.40255e-05
8.45149e-05
-1.07776e-05
8.43379e-05
-7.48256e-06
8.42991e-05
-4.14602e-06
8.43998e-05
-7.72514e-07
2.63931e-06
8.46416e-05
8.72695e-05
-2.54517e-05
-8.82524e-05
8.64128e-05
-2.25748e-05
8.56846e-05
-1.963e-05
8.50874e-05
-1.66237e-05
8.46232e-05
-1.35613e-05
8.42937e-05
-1.04481e-05
8.41006e-05
-7.28944e-06
8.40453e-05
-4.09069e-06
8.41291e-05
-8.56296e-07
2.41477e-06
8.43536e-05
8.7126e-05
-2.44573e-05
-8.81205e-05
8.62569e-05
-2.17057e-05
8.55158e-05
-1.8889e-05
8.49051e-05
-1.6013e-05
8.44269e-05
-1.3083e-05
8.40829e-05
-1.01041e-05
8.38748e-05
-7.08138e-06
8.38042e-05
-4.02003e-06
8.38722e-05
-9.24357e-07
2.20635e-06
8.40807e-05
8.69871e-05
-2.34522e-05
-8.79922e-05
8.61068e-05
-2.08254e-05
8.5354e-05
-1.81361e-05
8.47309e-05
-1.53899e-05
8.42397e-05
-1.25919e-05
8.38824e-05
-9.74676e-06
8.36605e-05
-6.85952e-06
8.35756e-05
-3.93514e-06
8.3629e-05
-9.77787e-07
2.01299e-06
8.38224e-05
8.68534e-05
-2.24376e-05
-8.78681e-05
8.59629e-05
-1.99349e-05
8.51992e-05
-1.73724e-05
8.45648e-05
-1.47555e-05
8.40618e-05
-1.20889e-05
8.36921e-05
-9.37707e-06
8.34574e-05
-6.62486e-06
8.33593e-05
-3.83704e-06
8.33991e-05
-1.0176e-06
1.83368e-06
8.35784e-05
8.67252e-05
-2.14142e-05
-8.77486e-05
8.58253e-05
-1.9035e-05
8.50518e-05
-1.65988e-05
8.44069e-05
-1.41106e-05
8.3893e-05
-1.15749e-05
8.35119e-05
-8.99598e-06
8.32654e-05
-6.37838e-06
8.31551e-05
-3.72669e-06
8.31822e-05
-1.04475e-06
1.66747e-06
8.33484e-05
8.66027e-05
-2.03829e-05
-8.7634e-05
8.56944e-05
-1.81267e-05
8.49117e-05
-1.58162e-05
8.42573e-05
-1.34562e-05
8.37333e-05
-1.10509e-05
8.33418e-05
-8.6044e-06
8.30843e-05
-6.12096e-06
8.29626e-05
-3.60496e-06
8.2978e-05
-1.06011e-06
1.51346e-06
8.3132e-05
8.64862e-05
-1.93444e-05
-8.75247e-05
8.55701e-05
-1.72105e-05
8.47792e-05
-1.50253e-05
8.4116e-05
-1.2793e-05
8.35828e-05
-1.05177e-05
8.31815e-05
-8.20312e-06
8.2914e-05
-5.85341e-06
8.27817e-05
-3.47271e-06
8.27862e-05
-1.06454e-06
1.37083e-06
8.29288e-05
8.63758e-05
-1.82993e-05
-8.74209e-05
8.54527e-05
-1.62874e-05
8.46542e-05
-1.42269e-05
8.3983e-05
-1.21218e-05
8.34413e-05
-9.97597e-06
8.30311e-05
-7.7929e-06
8.27542e-05
-5.5765e-06
8.26122e-05
-3.33069e-06
8.26064e-05
-1.0588e-06
1.23876e-06
8.27385e-05
8.62718e-05
-1.72483e-05
-8.73227e-05
8.53422e-05
-1.53578e-05
8.45368e-05
-1.34215e-05
8.38583e-05
-1.14433e-05
8.33087e-05
-9.42644e-06
8.28903e-05
-7.37445e-06
8.26047e-05
-5.29096e-06
8.24537e-05
-3.17963e-06
8.24385e-05
-1.04365e-06
1.11652e-06
8.25608e-05
8.6174e-05
-1.61919e-05
-8.72304e-05
8.52386e-05
-1.44224e-05
8.4427e-05
-1.26099e-05
8.37417e-05
-1.0758e-05
8.3185e-05
-8.86974e-06
8.2759e-05
-6.94843e-06
8.24655e-05
-4.99743e-06
8.2306e-05
-3.02021e-06
8.22822e-05
-1.01976e-06
1.0034e-06
8.23953e-05
8.60828e-05
-1.51308e-05
-8.7144e-05
8.51421e-05
-1.34817e-05
8.43247e-05
-1.17925e-05
8.36333e-05
-1.00665e-05
8.307e-05
-8.30647e-06
8.2637e-05
-6.51544e-06
8.23361e-05
-4.69657e-06
8.2169e-05
-2.85309e-06
8.21371e-05
-9.87807e-07
8.98704e-07
8.22417e-05
8.5998e-05
-1.40652e-05
-8.70636e-05
8.50525e-05
-1.25362e-05
8.423e-05
-1.097e-05
8.35329e-05
-9.36941e-06
8.29636e-05
-7.73719e-06
8.25242e-05
-6.07605e-06
8.22166e-05
-4.38894e-06
8.20424e-05
-2.67885e-06
8.2003e-05
-9.48404e-07
8.01809e-07
8.20999e-05
8.59198e-05
-1.29958e-05
-8.69892e-05
8.497e-05
-1.15864e-05
8.41427e-05
-1.01427e-05
8.34405e-05
-8.66722e-06
8.28657e-05
-7.16242e-06
8.24205e-05
-5.63082e-06
8.21067e-05
-4.07512e-06
8.19259e-05
-2.49809e-06
8.18796e-05
-9.02144e-07
7.12098e-07
8.19693e-05
8.5848e-05
-1.19228e-05
-8.69209e-05
8.48943e-05
-1.06327e-05
8.40628e-05
-9.31118e-06
8.3356e-05
-7.9604e-06
8.27762e-05
-6.58266e-06
8.23256e-05
-5.18025e-06
8.20061e-05
-3.75563e-06
8.18194e-05
-2.31133e-06
8.17668e-05
-8.49592e-07
6.28987e-07
8.18499e-05
8.57827e-05
-1.08468e-05
-8.68587e-05
8.48255e-05
-9.67562e-06
8.39902e-05
-8.47582e-06
8.32792e-05
-7.2494e-06
8.26949e-05
-5.99838e-06
8.22395e-05
-4.72482e-06
8.19148e-05
-3.43097e-06
8.17226e-05
-2.11911e-06
8.16643e-05
-7.91287e-07
5.51913e-07
8.17414e-05
8.57237e-05
-9.7681e-06
-8.68024e-05
8.47636e-05
-8.71546e-06
8.39248e-05
-7.63708e-06
8.32101e-05
-6.53467e-06
8.26217e-05
-5.41003e-06
8.21619e-05
-4.26502e-06
8.18326e-05
-3.10163e-06
8.16354e-05
-1.92193e-06
8.15719e-05
-7.27748e-07
4.80336e-07
8.16434e-05
8.56711e-05
-8.68705e-06
-8.67522e-05
8.47083e-05
-7.75264e-06
8.38665e-05
-6.79534e-06
8.31485e-05
-5.81662e-06
8.25565e-05
-4.81805e-06
8.20928e-05
-3.80128e-06
8.17592e-05
-2.76807e-06
8.15576e-05
-1.72026e-06
8.14893e-05
-6.59477e-07
4.13734e-07
8.15559e-05
8.56247e-05
-7.60404e-06
-8.67077e-05
8.46596e-05
-6.78756e-06
8.38153e-05
-5.95101e-06
8.30943e-05
-5.09566e-06
8.24992e-05
-4.22286e-06
8.20319e-05
-3.33404e-06
8.16946e-05
-2.43074e-06
8.14889e-05
-1.51457e-06
8.14164e-05
-5.86959e-07
3.51595e-07
8.14785e-05
8.55845e-05
-6.51946e-06
-8.6669e-05
8.46175e-05
-5.82059e-06
8.3771e-05
-5.10449e-06
8.30475e-05
-4.3722e-06
8.24495e-05
-3.62487e-06
8.19792e-05
-2.86373e-06
8.16385e-05
-2.09008e-06
8.14293e-05
-1.30532e-06
8.1353e-05
-5.10668e-07
2.93422e-07
8.14112e-05
8.55502e-05
-5.4337e-06
-8.6636e-05
8.45818e-05
-4.85213e-06
8.37334e-05
-4.25616e-06
8.30079e-05
-3.64662e-06
8.24075e-05
-3.02448e-06
8.19345e-05
-2.39074e-06
8.15909e-05
-1.74652e-06
8.13786e-05
-1.09295e-06
8.1299e-05
-4.31072e-07
2.38724e-07
8.13537e-05
8.5522e-05
-4.34713e-06
-8.66086e-05
8.45524e-05
-3.88255e-06
8.37026e-05
-3.40639e-06
8.29753e-05
-2.91931e-06
8.23729e-05
-2.42207e-06
8.18977e-05
-1.9155e-06
8.15516e-05
-1.40047e-06
8.13366e-05
-8.779e-07
8.12541e-05
-3.48636e-07
1.87011e-07
8.13059e-05
8.54996e-05
-3.26014e-06
-8.65866e-05
8.45293e-05
-2.91222e-06
8.36785e-05
-2.55555e-06
8.29498e-05
-2.19063e-06
8.23457e-05
-1.81804e-06
8.18686e-05
-1.43839e-06
8.15205e-05
-1.05235e-06
8.13032e-05
-6.60621e-07
8.12184e-05
-2.63826e-07
1.3779e-07
8.12676e-05
8.54831e-05
-2.17308e-06
-8.65702e-05
8.45124e-05
-1.94147e-06
8.36608e-05
-1.70398e-06
8.29311e-05
-1.46094e-06
8.23258e-05
-1.21275e-06
8.18473e-05
-9.5982e-07
8.14975e-05
-7.02602e-07
8.12785e-05
-4.41561e-07
8.11917e-05
-1.77115e-07
9.056e-08
8.1239e-05
8.54724e-05
-1.08627e-06
-8.65592e-05
8.45015e-05
-9.70639e-07
8.36496e-05
-8.52021e-07
8.29193e-05
-7.30605e-07
8.23131e-05
-6.06597e-07
8.18335e-05
-4.80207e-07
8.14825e-05
-3.51659e-07
8.12622e-05
-2.21186e-07
8.11741e-05
-8.89988e-08
4.48084e-08
8.12198e-05
8.54673e-05
-8.65536e-05
8.44967e-05
8.36447e-05
8.29141e-05
8.23075e-05
8.18273e-05
8.14756e-05
8.12544e-05
8.11654e-05
8.12102e-05
8.57283e-05
4.62373e-06
8.43522e-05
1.19915e-06
8.36951e-05
1.93094e-06
8.39447e-05
4.04111e-06
8.40167e-05
4.92387e-06
8.39042e-05
5.52788e-06
8.37798e-05
6.34002e-06
8.36634e-05
7.23987e-06
8.35391e-05
8.16518e-06
8.34097e-05
9.14276e-06
8.32851e-05
1.0195e-05
8.31755e-05
1.13311e-05
8.30911e-05
1.25597e-05
8.30449e-05
1.38905e-05
8.30524e-05
1.53326e-05
8.31327e-05
1.68929e-05
8.33092e-05
1.85735e-05
8.36148e-05
2.03635e-05
8.41169e-05
2.22135e-05
2.39572e-05
8.53091e-05
2.56305e-06
8.45725e-05
1.93577e-06
8.40143e-05
2.48913e-06
8.41067e-05
3.9487e-06
8.4148e-05
4.88254e-06
8.40685e-05
5.60744e-06
8.39789e-05
6.42963e-06
8.38989e-05
7.31981e-06
8.38194e-05
8.2447e-06
8.37429e-05
9.21926e-06
8.36783e-05
1.02596e-05
8.36351e-05
1.13743e-05
8.3624e-05
1.25709e-05
8.36578e-05
1.38567e-05
8.37523e-05
1.52381e-05
8.39266e-05
1.67186e-05
8.42045e-05
1.82956e-05
8.46158e-05
1.99521e-05
8.5197e-05
2.16323e-05
2.31932e-05
8.42739e-05
1.58399e-06
8.42242e-05
1.98548e-06
8.40057e-05
2.70765e-06
8.40696e-05
3.88475e-06
8.41319e-05
4.82024e-06
8.41183e-05
5.62105e-06
8.4086e-05
6.462e-06
8.40562e-05
7.3496e-06
8.4029e-05
8.27187e-06
8.4009e-05
9.23926e-06
8.40047e-05
1.02638e-05
8.40258e-05
1.13532e-05
8.4083e-05
1.25137e-05
8.41889e-05
1.37508e-05
8.43586e-05
1.50684e-05
8.46098e-05
1.64673e-05
8.49634e-05
1.7942e-05
8.54419e-05
1.94737e-05
8.60658e-05
2.10084e-05
2.24098e-05
8.37919e-05
1.11243e-06
8.38684e-05
1.909e-06
8.38419e-05
2.73413e-06
8.39436e-05
3.78307e-06
8.40432e-05
4.7206e-06
8.40924e-05
5.57182e-06
8.41211e-05
6.43328e-06
8.41471e-05
7.32363e-06
8.41755e-05
8.2435e-06
8.42127e-05
9.20201e-06
8.42677e-05
1.02089e-05
8.435e-05
1.12709e-05
8.44703e-05
1.23934e-05
8.46409e-05
1.35803e-05
8.48756e-05
1.48337e-05
8.51905e-05
1.61524e-05
8.56032e-05
1.75294e-05
8.61313e-05
1.89455e-05
8.67896e-05
2.03501e-05
2.16149e-05
8.35487e-05
9.0237e-07
8.36363e-05
1.82145e-06
8.36918e-05
2.67863e-06
8.38128e-05
3.66201e-06
8.39371e-05
4.59636e-06
8.40333e-05
5.47557e-06
8.41142e-05
6.35241e-06
8.41918e-05
7.24607e-06
8.42726e-05
8.1627e-06
8.43638e-05
9.11081e-06
8.4474e-05
1.00986e-05
8.46127e-05
1.11322e-05
8.47902e-05
1.22159e-05
8.50178e-05
1.33526e-05
8.53085e-05
1.4543e-05
8.56761e-05
1.57847e-05
8.61356e-05
1.707e-05
8.67012e-05
1.83799e-05
8.73834e-05
1.96679e-05
2.08143e-05
8.34411e-05
8.15303e-07
8.35114e-05
1.75115e-06
8.35899e-05
2.60013e-06
8.37124e-05
3.53951e-06
8.38467e-05
4.46205e-06
8.39718e-05
5.35043e-06
8.40907e-05
6.23349e-06
8.42102e-05
7.12661e-06
8.43358e-05
8.03707e-06
8.44742e-05
8.97239e-06
8.46333e-05
9.93955e-06
8.48218e-05
1.09438e-05
8.50492e-05
1.19885e-05
8.5326e-05
1.30758e-05
8.56637e-05
1.42054e-05
8.60744e-05
1.5374e-05
8.65706e-05
1.65737e-05
8.71639e-05
1.77866e-05
8.78621e-05
1.89696e-05
2.00112e-05
8.34042e-05
7.79346e-07
8.34565e-05
1.69881e-06
8.35344e-05
2.52223e-06
8.36497e-05
3.42424e-06
8.37844e-05
4.32737e-06
8.39242e-05
5.21062e-06
8.40677e-05
6.08995e-06
8.4218e-05
6.97636e-06
8.43789e-05
7.8761e-06
8.4556e-05
8.79533e-06
8.47559e-05
9.73967e-06
8.49863e-05
1.07134e-05
8.52557e-05
1.17191e-05
8.55735e-05
1.2758e-05
8.59497e-05
1.38292e-05
8.63947e-05
1.4929e-05
8.6919e-05
1.60495e-05
8.75319e-05
1.71737e-05
8.82396e-05
1.8262e-05
1.92099e-05
8.33999e-05
7.6161e-07
8.34416e-05
1.65715e-06
8.35134e-05
2.45044e-06
8.36196e-05
3.31804e-06
8.37501e-05
4.19681e-06
8.38957e-05
5.06501e-06
8.40537e-05
5.93196e-06
8.4225e-05
6.80513e-06
8.4412e-05
7.68909e-06
8.46189e-05
8.58844e-06
8.48511e-05
9.50743e-06
8.51152e-05
1.04492e-05
8.54186e-05
1.14158e-05
8.57692e-05
1.24074e-05
8.61757e-05
1.34227e-05
8.6647e-05
1.44577e-05
8.71917e-05
1.55048e-05
8.78174e-05
1.6548e-05
8.85288e-05
1.75506e-05
1.84149e-05
8.34092e-05
7.48353e-07
8.34468e-05
1.61954e-06
8.35137e-05
2.3836e-06
8.36125e-05
3.21924e-06
8.37382e-05
4.07111e-06
8.38852e-05
4.91802e-06
8.4051e-05
5.76609e-06
8.42358e-05
6.62039e-06
8.4441e-05
7.48386e-06
8.46698e-05
8.35965e-06
8.49265e-05
9.25073e-06
8.52164e-05
1.01593e-05
8.55459e-05
1.10863e-05
8.59216e-05
1.20317e-05
8.63508e-05
1.29934e-05
8.6841e-05
1.39676e-05
8.73993e-05
1.49465e-05
8.80317e-05
1.59155e-05
8.87417e-05
1.68405e-05
1.76302e-05
8.34235e-05
7.3446e-07
8.34611e-05
1.582e-06
8.35255e-05
2.31918e-06
8.36196e-05
3.12508e-06
8.37416e-05
3.94916e-06
8.38884e-05
4.77126e-06
8.40583e-05
5.5961e-06
8.42515e-05
6.42726e-06
8.44689e-05
7.26643e-06
8.4713e-05
8.11554e-06
8.49873e-05
8.97647e-06
8.52961e-05
9.85048e-06
8.56445e-05
1.07379e-05
8.60383e-05
1.16379e-05
8.64834e-05
1.25483e-05
8.69859e-05
1.3465e-05
8.75516e-05
1.43808e-05
8.81854e-05
1.52817e-05
8.88896e-05
1.61363e-05
1.68592e-05
8.34391e-05
7.18488e-07
8.34784e-05
1.5427e-06
8.35424e-05
2.25511e-06
8.36345e-05
3.03307e-06
8.37543e-05
3.82934e-06
8.39006e-05
4.62489e-06
8.40729e-05
5.42387e-06
8.42711e-05
6.229e-06
8.44964e-05
7.0411e-06
8.47508e-05
7.86119e-06
8.5037e-05
8.69026e-06
8.53587e-05
9.52881e-06
8.572e-05
1.03766e-05
8.61257e-05
1.12323e-05
8.65806e-05
1.20934e-05
8.70897e-05
1.29559e-05
8.76576e-05
1.38128e-05
8.82882e-05
1.46512e-05
8.89827e-05
1.54418e-05
1.61049e-05
8.34544e-05
7.00409e-07
8.3496e-05
1.50109e-06
8.35609e-05
2.19013e-06
8.36526e-05
2.94145e-06
8.37716e-05
3.71026e-06
8.3918e-05
4.47856e-06
8.40916e-05
5.25027e-06
8.42929e-05
6.02764e-06
8.45232e-05
6.81089e-06
8.4784e-05
7.60039e-06
8.50777e-05
8.39649e-06
8.54075e-05
9.19909e-06
8.57766e-05
1.00074e-05
8.6189e-05
1.08199e-05
8.66486e-05
1.16338e-05
8.71594e-05
1.24451e-05
8.77251e-05
1.32471e-05
8.83485e-05
1.40278e-05
8.90302e-05
1.47601e-05
1.53696e-05
8.34689e-05
6.8063e-07
8.35127e-05
1.45729e-06
8.35791e-05
2.12371e-06
8.36714e-05
2.84923e-06
8.37906e-05
3.59099e-06
8.39373e-05
4.33189e-06
8.41118e-05
5.07572e-06
8.43151e-05
5.82442e-06
8.45481e-05
6.57784e-06
8.48126e-05
7.33591e-06
8.51106e-05
8.09851e-06
8.54446e-05
8.86509e-06
8.58175e-05
9.63453e-06
8.62323e-05
1.0405e-05
8.66925e-05
1.11737e-05
8.7201e-05
1.19365e-05
8.77608e-05
1.26873e-05
8.83738e-05
1.34148e-05
8.90401e-05
1.40938e-05
1.46551e-05
8.34827e-05
6.59614e-07
8.35283e-05
1.41168e-06
8.35962e-05
2.05579e-06
8.36894e-05
2.756e-06
8.38093e-05
3.47109e-06
8.39565e-05
4.18469e-06
8.41318e-05
4.90049e-06
8.4336e-05
5.6202e-06
8.45704e-05
6.34342e-06
8.48365e-05
7.06979e-06
8.51362e-05
7.79884e-06
8.54715e-05
8.52974e-06
8.5845e-05
9.2611e-06
8.6259e-05
9.99091e-06
8.67164e-05
1.07164e-05
8.72194e-05
1.14335e-05
8.77703e-05
1.21364e-05
8.83705e-05
1.28147e-05
8.90194e-05
1.34449e-05
1.39627e-05
8.34956e-05
6.37755e-07
8.35426e-05
1.3647e-06
8.36118e-05
1.98656e-06
8.37061e-05
2.66173e-06
8.38267e-05
3.35046e-06
8.39744e-05
4.037e-06
8.415e-05
4.72489e-06
8.43545e-05
5.41565e-06
8.45892e-05
6.10873e-06
8.48555e-05
6.80354e-06
8.51549e-05
7.4994e-06
8.54894e-05
8.19525e-06
8.5861e-05
8.88956e-06
8.62716e-05
9.58023e-06
8.67235e-05
1.02645e-05
8.72186e-05
1.09384e-05
8.77584e-05
1.15966e-05
8.83438e-05
1.22293e-05
8.89739e-05
1.28148e-05
1.32934e-05
8.35079e-05
6.1536e-07
8.35558e-05
1.31677e-06
8.3626e-05
1.91636e-06