/*--------------------------------*- C++ -*----------------------------------*\
  =========                 |
  \\      /  F ield         | OpenFOAM: The Open Source CFD Toolbox
   \\    /   O peration     | Website:  https://openfoam.org
    \\  /    A nd           | Version:  6
     \\/     M anipulation  |
\*---------------------------------------------------------------------------*/
FoamFile
{
    version     2.0;
    format      ascii;
    class       volScalarField;
    location    "0.6";
    object      p;
}
// * * * * * * * * * * * * * * * * * * * * * * * * * * * * * * * * * * * * * //

dimensions      [0 2 -2 0 0 0 0];

internalField   nonuniform List<scalar> 
5600
(
998.193
998.626
999.018
999.034
998.993
998.988
998.995
999.001
999.006
999.011
999.017
999.024
999.032
999.041
999.051
999.062
999.074
999.088
999.103
999.12
998.169
998.634
999.025
999.033
998.991
998.987
998.994
999
999.005
999.01
999.016
999.023
999.031
999.04
999.05
999.061
999.073
999.086
999.101
999.118
998.155
998.634
999.026
999.031
998.989
998.985
998.992
998.998
999.002
999.007
999.013
999.02
999.028
999.036
999.046
999.056
999.068
999.081
999.095
999.11
998.137
998.631
999.026
999.029
998.986
998.981
998.989
998.994
998.998
999.003
999.008
999.015
999.022
999.03
999.039
999.048
999.059
999.071
999.083
999.096
998.116
998.627
999.025
999.025
998.981
998.977
998.984
998.989
998.992
998.997
999.002
999.007
999.014
999.021
999.029
999.037
999.046
999.056
999.067
999.077
998.092
998.622
999.024
999.021
998.975
998.971
998.978
998.982
998.985
998.989
998.993
998.998
999.004
999.01
999.016
999.023
999.03
999.038
999.046
999.053
998.065
998.616
999.023
999.016
998.969
998.964
998.971
998.974
998.977
998.98
998.983
998.987
998.992
998.996
999.001
999.007
999.012
999.017
999.022
999.026
998.034
998.612
999.023
999.01
998.961
998.957
998.963
998.966
998.967
998.969
998.972
998.975
998.978
998.982
998.985
998.988
998.991
998.993
998.994
998.994
997.999
998.61
999.023
999.003
998.952
998.948
998.954
998.956
998.957
998.958
998.96
998.962
998.964
998.966
998.967
998.968
998.969
998.968
998.966
998.962
997.937
998.622
999.026
998.99
998.941
998.939
998.944
998.945
998.946
998.946
998.947
998.948
998.949
998.949
998.949
998.948
998.946
998.943
998.937
998.929
999.142
999.17
999.204
999.242
999.286
999.335
999.392
999.454
999.523
999.689
999.139
999.166
999.199
999.236
999.278
999.327
999.381
999.441
999.506
999.672
999.129
999.155
999.187
999.222
999.262
999.308
999.359
999.414
999.475
999.635
999.112
999.136
999.166
999.199
999.236
999.277
999.324
999.374
999.428
999.581
999.089
999.11
999.137
999.167
999.2
999.237
999.277
999.32
999.367
999.509
999.059
999.077
999.101
999.128
999.156
999.187
999.22
999.256
999.294
999.421
999.026
999.04
999.061
999.083
999.106
999.131
999.156
999.182
999.211
999.321
998.988
998.999
999.016
999.034
999.052
999.069
999.087
999.104
999.121
999.212
998.948
998.955
998.97
998.982
998.994
999.006
999.015
999.023
999.03
999.099
998.907
998.912
998.923
998.931
998.937
998.941
998.942
998.939
998.933
998.979
998.873
998.88
998.885
998.885
998.882
998.874
998.857
998.833
998.807
998.841
998.835
998.839
998.837
998.831
998.821
998.803
998.776
998.741
998.704
998.718
998.794
998.793
998.785
998.774
998.757
998.732
998.697
998.655
998.61
998.602
998.751
998.745
998.733
998.716
998.692
998.66
998.618
998.569
998.519
998.492
998.707
998.697
998.68
998.657
998.628
998.59
998.542
998.488
998.433
998.388
998.663
998.648
998.627
998.6
998.566
998.523
998.471
998.413
998.355
998.294
998.62
998.602
998.577
998.546
998.508
998.462
998.407
998.346
998.286
998.212
998.579
998.557
998.53
998.496
998.455
998.407
998.35
998.288
998.227
998.142
998.541
998.516
998.487
998.451
998.409
998.36
998.303
998.241
998.18
998.084
998.506
998.48
998.449
998.413
998.37
998.32
998.264
998.203
998.14
998.036
998.868
998.829
998.789
998.749
998.707
998.666
998.627
998.589
998.555
998.523
998.855
998.818
998.78
998.743
998.705
998.668
998.631
998.597
998.565
998.536
998.84
998.805
998.769
998.735
998.701
998.667
998.634
998.603
998.574
998.547
998.826
998.793
998.76
998.729
998.698
998.667
998.637
998.608
998.582
998.557
998.813
998.783
998.753
998.724
998.695
998.667
998.639
998.613
998.589
998.565
998.802
998.774
998.746
998.72
998.693
998.667
998.642
998.618
998.595
998.573
998.792
998.766
998.74
998.716
998.691
998.667
998.644
998.621
998.6
998.58
998.783
998.759
998.735
998.712
998.69
998.667
998.646
998.625
998.605
998.586
998.775
998.752
998.73
998.709
998.688
998.667
998.647
998.628
998.609
998.591
998.768
998.747
998.726
998.706
998.687
998.668
998.649
998.631
998.613
998.596
998.761
998.742
998.722
998.704
998.686
998.668
998.65
998.633
998.617
998.601
998.755
998.737
998.719
998.702
998.685
998.668
998.651
998.635
998.62
998.605
998.75
998.733
998.716
998.7
998.684
998.668
998.652
998.637
998.623
998.608
998.745
998.729
998.713
998.698
998.683
998.668
998.653
998.639
998.625
998.611
998.741
998.726
998.711
998.697
998.682
998.668
998.654
998.641
998.627
998.614
998.737
998.722
998.709
998.695
998.681
998.668
998.655
998.642
998.63
998.617
998.733
998.72
998.707
998.694
998.681
998.668
998.656
998.643
998.631
998.62
998.73
998.717
998.705
998.692
998.68
998.668
998.656
998.645
998.633
998.622
998.726
998.714
998.703
998.691
998.68
998.668
998.657
998.646
998.635
998.624
998.724
998.712
998.701
998.69
998.679
998.668
998.657
998.647
998.636
998.626
998.721
998.71
998.7
998.689
998.678
998.668
998.658
998.647
998.637
998.627
998.718
998.708
998.698
998.688
998.678
998.668
998.658
998.648
998.639
998.629
998.716
998.706
998.697
998.687
998.677
998.668
998.658
998.649
998.64
998.63
998.714
998.705
998.695
998.686
998.677
998.668
998.659
998.65
998.641
998.632
998.712
998.703
998.694
998.685
998.677
998.668
998.659
998.65
998.641
998.633
998.71
998.702
998.693
998.685
998.676
998.668
998.659
998.651
998.642
998.634
998.708
998.7
998.692
998.684
998.676
998.667
998.659
998.651
998.643
998.635
998.707
998.699
998.691
998.683
998.675
998.667
998.659
998.651
998.644
998.636
998.705
998.698
998.69
998.683
998.675
998.667
998.659
998.652
998.644
998.636
998.704
998.697
998.689
998.682
998.675
998.667
998.66
998.652
998.645
998.637
998.703
998.696
998.689
998.681
998.674
998.667
998.66
998.652
998.645
998.638
998.701
998.695
998.688
998.681
998.674
998.667
998.66
998.653
998.646
998.638
998.7
998.694
998.687
998.68
998.674
998.667
998.66
998.653
998.646
998.639
998.699
998.693
998.686
998.68
998.673
998.666
998.66
998.653
998.646
998.64
998.698
998.692
998.686
998.679
998.673
998.666
998.66
998.653
998.647
998.64
998.697
998.691
998.685
998.679
998.673
998.666
998.66
998.653
998.647
998.64
998.697
998.691
998.685
998.679
998.672
998.666
998.66
998.653
998.647
998.641
998.696
998.69
998.684
998.678
998.672
998.666
998.66
998.654
998.647
998.641
998.695
998.69
998.684
998.678
998.672
998.666
998.66
998.654
998.648
998.641
998.695
998.689
998.683
998.678
998.672
998.666
998.66
998.654
998.648
998.642
998.694
998.689
998.683
998.677
998.671
998.666
998.66
998.654
998.648
998.642
998.693
998.688
998.683
998.677
998.671
998.666
998.66
998.654
998.648
998.642
998.693
998.688
998.682
998.677
998.671
998.665
998.66
998.654
998.648
998.642
998.693
998.687
998.682
998.677
998.671
998.665
998.66
998.654
998.648
998.642
998.692
998.687
998.682
998.676
998.671
998.665
998.66
998.654
998.648
998.643
998.692
998.687
998.682
998.676
998.671
998.665
998.66
998.654
998.648
998.643
998.692
998.687
998.681
998.676
998.671
998.665
998.66
998.654
998.648
998.643
998.692
998.687
998.681
998.676
998.671
998.665
998.66
998.654
998.648
998.643
998.692
998.686
998.681
998.676
998.671
998.665
998.66
998.654
998.648
998.643
998.691
998.686
998.681
998.676
998.671
998.665
998.66
998.654
998.648
998.643
997.814
998.676
999.039
998.969
998.927
998.93
998.934
998.933
998.932
998.932
998.932
998.931
998.93
998.928
998.925
998.922
998.917
998.909
998.899
998.882
997.755
998.692
999.036
998.955
998.918
998.923
998.926
998.924
998.923
998.922
998.921
998.92
998.918
998.915
998.912
998.907
998.9
998.892
998.881
998.865
997.727
998.687
999.029
998.945
998.91
998.916
998.918
998.916
998.915
998.913
998.912
998.91
998.907
998.904
998.899
998.894
998.887
998.878
998.867
998.852
997.706
998.679
999.022
998.936
998.902
998.908
998.91
998.908
998.906
998.904
998.902
998.899
998.896
998.892
998.887
998.881
998.874
998.865
998.854
998.84
997.688
998.671
999.016
998.928
998.894
998.9
998.902
998.899
998.897
998.895
998.892
998.889
998.886
998.881
998.876
998.87
998.862
998.852
998.841
998.828
997.671
998.662
999.009
998.921
998.886
998.892
998.894
998.891
998.889
998.886
998.883
998.88
998.876
998.871
998.865
998.859
998.851
998.841
998.83
998.817
997.655
998.653
999.003
998.913
998.878
998.885
998.886
998.883
998.88
998.878
998.874
998.871
998.866
998.861
998.855
998.848
998.84
998.831
998.82
998.807
997.639
998.645
998.996
998.906
998.871
998.877
998.878
998.875
998.872
998.869
998.866
998.862
998.857
998.852
998.846
998.839
998.83
998.821
998.81
998.798
997.624
998.636
998.99
998.899
998.864
998.87
998.871
998.868
998.864
998.861
998.858
998.854
998.849
998.843
998.837
998.83
998.821
998.812
998.802
998.79
997.609
998.628
998.984
998.892
998.856
998.862
998.863
998.86
998.857
998.854
998.85
998.846
998.841
998.835
998.829
998.821
998.813
998.804
998.794
998.782
997.595
998.62
998.978
998.885
998.849
998.855
998.856
998.853
998.85
998.846
998.842
998.838
998.833
998.827
998.821
998.814
998.805
998.796
998.786
998.775
997.58
998.612
998.972
998.879
998.843
998.849
998.85
998.846
998.843
998.839
998.835
998.831
998.825
998.82
998.813
998.806
998.798
998.789
998.78
998.769
997.567
998.604
998.966
998.873
998.836
998.842
998.843
998.839
998.836
998.832
998.828
998.824
998.819
998.813
998.806
998.799
998.792
998.783
998.774
998.763
997.553
998.597
998.96
998.866
998.83
998.836
998.837
998.833
998.829
998.826
998.822
998.817
998.812
998.806
998.8
998.793
998.785
998.777
998.768
998.758
997.54
998.59
998.955
998.861
998.824
998.83
998.83
998.827
998.823
998.82
998.815
998.811
998.806
998.8
998.794
998.787
998.78
998.771
998.763
998.753
997.527
998.583
998.95
998.855
998.818
998.824
998.824
998.821
998.817
998.814
998.809
998.805
998.8
998.794
998.788
998.781
998.774
998.766
998.758
998.749
997.515
998.576
998.945
998.849
998.812
998.818
998.819
998.815
998.811
998.808
998.804
998.799
998.794
998.789
998.783
998.776
998.769
998.762
998.753
998.745
997.503
998.569
998.94
998.844
998.806
998.812
998.813
998.81
998.806
998.802
998.798
998.794
998.789
998.784
998.778
998.771
998.764
998.757
998.749
998.741
997.492
998.563
998.935
998.839
998.801
998.807
998.808
998.804
998.801
998.797
998.793
998.789
998.784
998.779
998.773
998.767
998.76
998.753
998.745
998.737
997.481
998.557
998.931
998.834
998.796
998.802
998.803
998.799
998.796
998.792
998.788
998.784
998.779
998.774
998.768
998.762
998.756
998.749
998.742
998.734
997.471
998.551
998.926
998.829
998.791
998.797
998.798
998.795
998.791
998.788
998.784
998.78
998.775
998.77
998.764
998.758
998.752
998.745
998.738
998.731
997.461
998.546
998.922
998.825
998.787
998.793
998.794
998.79
998.787
998.783
998.779
998.775
998.771
998.766
998.76
998.755
998.748
998.742
998.735
998.728
997.451
998.54
998.918
998.82
998.782
998.788
998.789
998.786
998.782
998.779
998.775
998.771
998.767
998.762
998.757
998.751
998.745
998.739
998.732
998.725
997.442
998.535
998.915
998.816
998.778
998.784
998.785
998.782
998.778
998.775
998.771
998.767
998.763
998.758
998.753
998.748
998.742
998.736
998.729
998.723
997.433
998.531
998.911
998.812
998.774
998.78
998.781
998.778
998.775
998.771
998.768
998.764
998.759
998.755
998.75
998.745
998.739
998.733
998.727
998.721
997.425
998.526
998.908
998.809
998.77
998.777
998.778
998.774
998.771
998.768
998.764
998.76
998.756
998.752
998.747
998.742
998.736
998.73
998.725
998.718
997.417
998.522
998.904
998.805
998.767
998.773
998.774
998.771
998.768
998.764
998.761
998.757
998.753
998.749
998.744
998.739
998.734
998.728
998.722
998.716
997.41
998.517
998.901
998.802
998.763
998.77
998.771
998.768
998.764
998.761
998.758
998.754
998.75
998.746
998.741
998.736
998.731
998.726
998.72
998.714
997.403
998.514
998.899
998.799
998.76
998.766
998.768
998.764
998.761
998.758
998.755
998.751
998.747
998.743
998.739
998.734
998.729
998.724
998.718
998.713
997.396
998.51
998.896
998.796
998.757
998.763
998.765
998.761
998.758
998.755
998.752
998.748
998.745
998.741
998.736
998.732
998.727
998.722
998.716
998.711
997.39
998.506
998.893
998.793
998.754
998.761
998.762
998.759
998.756
998.753
998.749
998.746
998.742
998.738
998.734
998.729
998.725
998.72
998.715
998.709
997.384
998.503
998.891
998.79
998.751
998.758
998.759
998.756
998.753
998.75
998.747
998.744
998.74
998.736
998.732
998.727
998.723
998.718
998.713
998.708
997.378
998.5
998.888
998.788
998.749
998.755
998.757
998.754
998.751
998.748
998.745
998.741
998.738
998.734
998.73
998.726
998.721
998.716
998.712
998.707
997.373
998.497
998.886
998.785
998.746
998.753
998.755
998.751
998.748
998.746
998.743
998.739
998.736
998.732
998.728
998.724
998.72
998.715
998.71
998.705
997.368
998.494
998.884
998.783
998.744
998.751
998.752
998.749
998.746
998.744
998.741
998.737
998.734
998.73
998.726
998.722
998.718
998.714
998.709
998.704
997.364
998.492
998.883
998.781
998.742
998.749
998.75
998.747
998.744
998.742
998.739
998.736
998.732
998.729
998.725
998.721
998.717
998.712
998.708
998.703
997.359
998.49
998.881
998.779
998.74
998.747
998.749
998.746
998.743
998.74
998.737
998.734
998.731
998.727
998.723
998.719
998.715
998.711
998.707
998.702
997.356
998.487
998.879
998.778
998.738
998.745
998.747
998.744
998.741
998.738
998.736
998.733
998.729
998.726
998.722
998.718
998.714
998.71
998.706
998.701
997.352
998.486
998.878
998.776
998.737
998.744
998.745
998.742
998.74
998.737
998.734
998.731
998.728
998.725
998.721
998.717
998.713
998.709
998.705
998.7
997.349
998.484
998.876
998.775
998.735
998.742
998.744
998.741
998.738
998.736
998.733
998.73
998.727
998.723
998.72
998.716
998.712
998.708
998.704
998.7
997.346
998.482
998.875
998.773
998.734
998.741
998.743
998.74
998.737
998.734
998.732
998.729
998.726
998.722
998.719
998.715
998.711
998.707
998.703
998.699
997.343
998.481
998.874
998.772
998.733
998.74
998.742
998.739
998.736
998.733
998.731
998.728
998.725
998.721
998.718
998.714
998.711
998.707
998.703
998.698
997.341
998.479
998.873
998.771
998.732
998.739
998.741
998.738
998.735
998.732
998.73
998.727
998.724
998.721
998.717
998.714
998.71
998.706
998.702
998.698
997.339
998.478
998.872
998.77
998.731
998.738
998.74
998.737
998.734
998.732
998.729
998.726
998.723
998.72
998.716
998.713
998.709
998.705
998.701
998.697
997.337
998.477
998.872
998.769
998.73
998.737
998.739
998.736
998.733
998.731
998.728
998.725
998.722
998.719
998.716
998.712
998.709
998.705
998.701
998.697
997.336
998.476
998.871
998.769
998.73
998.737
998.738
998.735
998.733
998.73
998.728
998.725
998.722
998.719
998.715
998.712
998.708
998.705
998.701
998.697
997.336
998.475
998.87
998.769
998.729
998.736
998.738
998.735
998.732
998.73
998.727
998.725
998.722
998.718
998.715
998.712
998.708
998.704
998.7
998.696
997.337
998.474
998.87
998.769
998.729
998.736
998.738
998.735
998.732
998.73
998.727
998.724
998.721
998.718
998.715
998.711
998.708
998.704
998.7
998.696
997.347
998.467
998.87
998.77
998.729
998.735
998.737
998.734
998.732
998.729
998.727
998.724
998.721
998.718
998.715
998.711
998.708
998.704
998.7
998.696
997.383
998.443
998.865
998.774
998.729
998.735
998.737
998.734
998.732
998.729
998.727
998.724
998.721
998.718
998.714
998.711
998.707
998.704
998.7
998.696
998.361
998.328
998.297
998.269
998.24
998.208
998.175
998.139
998.103
998.037
998.366
998.332
998.3
998.273
998.244
998.214
998.182
998.148
998.114
998.056
998.361
998.331
998.302
998.277
998.251
998.222
998.192
998.16
998.129
998.077
998.354
998.33
998.303
998.28
998.255
998.228
998.2
998.171
998.142
998.099
998.349
998.328
998.304
998.282
998.259
998.234
998.208
998.181
998.155
998.121
998.345
998.326
998.305
998.284
998.262
998.239
998.215
998.19
998.167
998.14
998.342
998.325
998.306
998.287
998.266
998.244
998.221
998.198
998.177
998.157
998.34
998.325
998.307
998.289
998.269
998.248
998.226
998.204
998.185
998.171
998.339
998.325
998.309
998.291
998.272
998.251
998.23
998.209
998.191
998.18
998.34
998.326
998.31
998.292
998.273
998.253
998.232
998.211
998.193
998.184
998.349
998.358
998.367
998.376
998.384
998.393
998.401
998.409
998.417
998.425
998.433
998.44
998.447
998.454
998.461
998.468
998.474
998.481
998.487
998.492
998.498
998.504
998.509
998.514
998.519
998.524
998.529
998.534
998.539
998.543
998.548
998.552
998.556
998.561
998.565
998.569
998.574
998.578
998.582
998.586
998.591
998.595
998.6
998.605
998.61
998.615
998.62
998.626
998.633
998.639
998.346
998.354
998.364
998.373
998.382
998.391
998.399
998.407
998.416
998.423
998.431
998.439
998.446
998.453
998.46
998.467
998.473
998.479
998.485
998.491
998.497
998.503
998.508
998.513
998.518
998.523
998.528
998.533
998.538
998.542
998.547
998.551
998.556
998.56
998.564
998.568
998.573
998.577
998.581
998.586
998.59
998.594
998.599
998.604
998.609
998.614
998.619
998.625
998.632
998.637
998.341
998.35
998.36
998.37
998.379
998.388
998.396
998.405
998.413
998.421
998.429
998.437
998.444
998.451
998.458
998.465
998.471
998.478
998.484
998.49
998.495
998.501
998.506
998.512
998.517
998.522
998.527
998.532
998.536
998.541
998.545
998.55
998.554
998.559
998.563
998.567
998.571
998.576
998.58
998.584
998.589
998.593
998.598
998.602
998.607
998.612
998.617
998.623
998.629
998.635
998.336
998.344
998.356
998.366
998.375
998.385
998.394
998.402
998.411
998.419
998.427
998.434
998.442
998.449
998.456
998.463
998.469
998.476
998.482
998.488
998.494
998.499
998.505
998.51
998.515
998.52
998.525
998.53
998.535
998.539
998.544
998.548
998.553
998.557
998.561
998.565
998.57
998.574
998.578
998.582
998.587
998.591
998.595
998.6
998.604
998.609
998.614
998.619
998.625
998.63
998.331
998.338
998.351
998.362
998.372
998.381
998.391
998.4
998.408
998.417
998.425
998.432
998.44
998.447
998.454
998.461
998.467
998.474
998.48
998.486
998.492
998.497
998.503
998.508
998.513
998.518
998.523
998.528
998.533
998.537
998.542
998.546
998.551
998.555
998.559
998.563
998.567
998.572
998.576
998.58
998.584
998.588
998.592
998.597
998.601
998.606
998.61
998.615
998.62
998.625
998.325
998.331
998.346
998.358
998.369
998.378
998.388
998.397
998.406
998.414
998.422
998.43
998.438
998.445
998.452
998.459
998.465
998.472
998.478
998.484
998.49
998.495
998.501
998.506
998.511
998.516
998.521
998.526
998.53
998.535
998.539
998.544
998.548
998.552
998.557
998.561
998.565
998.569
998.573
998.577
998.581
998.585
998.589
998.593
998.597
998.601
998.605
998.61
998.615
998.619
998.321
998.326
998.342
998.355
998.366
998.376
998.386
998.395
998.404
998.413
998.421
998.429
998.436
998.443
998.45
998.457
998.464
998.47
998.476
998.482
998.488
998.493
998.499
998.504
998.509
998.514
998.519
998.524
998.528
998.533
998.537
998.541
998.546
998.55
998.554
998.558
998.562
998.566
998.57
998.573
998.577
998.581
998.585
998.589
998.592
998.596
998.6
998.604
998.608
998.612
998.318
998.323
998.34
998.354
998.365
998.375
998.385
998.394
998.403
998.412
998.42
998.427
998.435
998.442
998.449
998.456
998.462
998.468
998.474
998.48
998.486
998.491
998.497
998.502
998.507
998.512
998.517
998.521
998.526
998.53
998.534
998.539
998.543
998.547
998.551
998.555
998.559
998.562
998.566
998.57
998.573
998.577
998.58
998.584
998.587
998.591
998.594
998.597
998.601
998.604
998.316
998.322
998.341
998.355
998.365
998.376
998.385
998.394
998.403
998.411
998.419
998.427
998.434
998.441
998.448
998.454
998.461
998.467
998.473
998.479
998.484
998.49
998.495
998.5
998.505
998.51
998.514
998.519
998.523
998.528
998.532
998.536
998.54
998.544
998.548
998.551
998.555
998.559
998.562
998.566
998.569
998.572
998.576
998.579
998.582
998.585
998.587
998.59
998.593
998.595
998.317
998.328
998.347
998.36
998.37
998.38
998.389
998.397
998.406
998.413
998.421
998.428
998.435
998.442
998.448
998.454
998.461
998.466
998.472
998.478
998.483
998.488
998.493
998.498
998.503
998.508
998.512
998.517
998.521
998.525
998.529
998.533
998.537
998.541
998.544
998.548
998.551
998.555
998.558
998.561
998.564
998.567
998.57
998.573
998.576
998.578
998.581
998.583
998.585
998.587
998.368
998.363
998.363
998.369
998.377
998.385
998.393
998.401
998.408
998.416
998.423
998.43
998.436
998.443
998.449
998.455
998.461
998.467
998.472
998.478
998.483
998.488
998.493
998.498
998.502
998.507
998.511
998.515
998.52
998.524
998.528
998.531
998.535
998.539
998.542
998.546
998.549
998.552
998.555
998.558
998.561
998.564
998.566
998.569
998.571
998.573
998.575
998.577
998.578
998.579
998.381
998.379
998.377
998.381
998.387
998.393
998.4
998.407
998.414
998.42
998.427
998.433
998.439
998.445
998.451
998.457
998.463
998.468
998.473
998.479
998.484
998.488
998.493
998.498
998.502
998.506
998.511
998.515
998.519
998.523
998.526
998.53
998.534
998.537
998.54
998.544
998.547
998.55
998.553
998.555
998.558
998.56
998.563
998.565
998.567
998.569
998.57
998.571
998.572
998.573
998.389
998.389
998.388
998.392
998.397
998.402
998.408
998.414
998.42
998.426
998.432
998.437
998.443
998.449
998.454
998.46
998.465
998.47
998.475
998.48
998.485
998.489
998.494
998.498
998.502
998.506
998.51
998.514
998.518
998.522
998.525
998.529
998.532
998.535
998.539
998.542
998.545
998.547
998.55
998.552
998.555
998.557
998.559
998.561
998.563
998.564
998.565
998.566
998.567
998.567
998.398
998.399
998.399
998.402
998.406
998.41
998.415
998.42
998.426
998.431
998.436
998.442
998.447
998.452
998.457
998.462
998.467
998.472
998.477
998.481
998.486
998.49
998.494
998.499
998.503
998.506
998.51
998.514
998.518
998.521
998.524
998.528
998.531
998.534
998.537
998.54
998.542
998.545
998.547
998.55
998.552
998.554
998.555
998.557
998.558
998.559
998.56
998.561
998.561
998.561
998.407
998.409
998.409
998.411
998.415
998.419
998.423
998.427
998.432
998.437
998.441
998.446
998.451
998.456
998.461
998.465
998.47
998.474
998.479
998.483
998.487
998.491
998.495
998.499
998.503
998.507
998.51
998.514
998.517
998.52
998.524
998.527
998.53
998.532
998.535
998.538
998.54
998.543
998.545
998.547
998.549
998.55
998.552
998.553
998.554
998.555
998.555
998.556
998.555
998.555
998.416
998.418
998.419
998.421
998.424
998.427
998.43
998.434
998.438
998.442
998.447
998.451
998.455
998.46
998.464
998.468
998.472
998.477
998.481
998.485
998.489
998.492
998.496
998.5
998.503
998.507
998.51
998.513
998.517
998.52
998.523
998.526
998.528
998.531
998.533
998.536
998.538
998.54
998.542
998.544
998.546
998.547
998.548
998.549
998.55
998.55
998.551
998.55
998.55
998.549
998.426
998.427
998.428
998.43
998.432
998.435
998.438
998.441
998.445
998.448
998.452
998.456
998.46
998.464
998.468
998.471
998.475
998.479
998.483
998.487
998.49
998.494
998.497
998.501
998.504
998.507
998.51
998.513
998.516
998.519
998.522
998.525
998.527
998.529
998.532
998.534
998.536
998.538
998.54
998.541
998.543
998.544
998.545
998.545
998.546
998.546
998.546
998.546
998.545
998.543
998.436
998.437
998.438
998.439
998.441
998.443
998.445
998.448
998.451
998.454
998.457
998.461
998.464
998.468
998.471
998.475
998.478
998.482
998.485
998.489
998.492
998.495
998.498
998.501
998.505
998.508
998.51
998.513
998.516
998.519
998.521
998.524
998.526
998.528
998.53
998.532
998.534
998.536
998.537
998.538
998.54
998.541
998.541
998.542
998.542
998.542
998.542
998.541
998.54
998.538
998.446
998.446
998.447
998.448
998.449
998.451
998.453
998.455
998.457
998.46
998.463
998.466
998.469
998.472
998.475
998.478
998.481
998.484
998.487
998.491
998.494
998.497
998.5
998.502
998.505
998.508
998.511
998.513
998.516
998.518
998.52
998.523
998.525
998.527
998.529
998.53
998.532
998.533
998.535
998.536
998.537
998.537
998.538
998.538
998.538
998.538
998.537
998.536
998.535
998.533
998.456
998.455
998.455
998.456
998.457
998.458
998.46
998.462
998.464
998.466
998.468
998.471
998.473
998.476
998.479
998.481
998.484
998.487
998.49
998.493
998.495
998.498
998.501
998.503
998.506
998.509
998.511
998.513
998.516
998.518
998.52
998.522
998.524
998.526
998.527
998.529
998.53
998.531
998.532
998.533
998.534
998.535
998.535
998.535
998.535
998.534
998.533
998.532
998.53
998.528
998.465
998.464
998.464
998.464
998.465
998.466
998.467
998.468
998.47
998.472
998.473
998.476
998.478
998.48
998.482
998.485
998.487
998.49
998.492
998.495
998.497
998.5
998.502
998.505
998.507
998.509
998.511
998.513
998.515
998.517
998.519
998.521
998.523
998.524
998.526
998.527
998.528
998.529
998.53
998.531
998.531
998.532
998.532
998.532
998.531
998.53
998.529
998.528
998.526
998.524
998.474
998.472
998.472
998.472
998.472
998.473
998.473
998.474
998.476
998.477
998.479
998.48
998.482
998.484
998.486
998.488
998.49
998.493
998.495
998.497
998.499
998.501
998.504
998.506
998.508
998.51
998.512
998.514
998.515
998.517
998.519
998.52
998.522
998.523
998.525
998.526
998.527
998.527
998.528
998.529
998.529
998.529
998.529
998.529
998.528
998.527
998.526
998.524
998.522
998.52
998.483
998.481
998.48
998.48
998.48
998.48
998.48
998.481
998.481
998.482
998.484
998.485
998.487
998.488
998.49
998.492
998.493
998.495
998.497
998.499
998.501
998.503
998.505
998.507
998.509
998.51
998.512
998.514
998.515
998.517
998.518
998.52
998.521
998.522
998.523
998.524
998.525
998.526
998.526
998.527
998.527
998.527
998.526
998.526
998.525
998.524
998.523
998.521
998.519
998.516
998.491
998.488
998.488
998.487
998.486
998.486
998.486
998.486
998.487
998.488
998.489
998.49
998.491
998.492
998.493
998.495
998.496
998.498
998.5
998.501
998.503
998.505
998.506
998.508
998.51
998.511
998.513
998.514
998.516
998.517
998.518
998.519
998.52
998.521
998.522
998.523
998.524
998.524
998.524
998.525
998.524
998.524
998.524
998.523
998.522
998.521
998.52
998.518
998.515
998.513
998.498
998.496
998.495
998.494
998.493
998.492
998.492
998.492
998.492
998.493
998.493
998.494
998.495
998.496
998.497
998.498
998.499
998.501
998.502
998.503
998.505
998.506
998.508
998.509
998.51
998.512
998.513
998.514
998.516
998.517
998.518
998.519
998.52
998.521
998.521
998.522
998.522
998.523
998.523
998.523
998.522
998.522
998.522
998.521
998.52
998.518
998.517
998.515
998.513
998.51
998.506
998.503
998.502
998.5
998.499
998.498
998.498
998.497
998.497
998.497
998.498
998.498
998.499
998.499
998.5
998.501
998.502
998.503
998.504
998.506
998.507
998.508
998.509
998.51
998.511
998.513
998.514
998.515
998.516
998.517
998.518
998.518
998.519
998.52
998.52
998.521
998.521
998.521
998.521
998.521
998.521
998.52
998.519
998.518
998.517
998.516
998.514
998.512
998.51
998.507
998.512
998.509
998.508
998.506
998.505
998.504
998.503
998.503
998.502
998.502
998.502
998.502
998.503
998.503
998.504
998.504
998.505
998.506
998.507
998.508
998.509
998.509
998.51
998.511
998.512
998.513
998.514
998.515
998.516
998.517
998.517
998.518
998.519
998.519
998.519
998.52
998.52
998.52
998.52
998.519
998.519
998.518
998.517
998.516
998.515
998.514
998.512
998.51
998.508
998.505
998.519
998.516
998.514
998.512
998.511
998.509
998.508
998.507
998.507
998.506
998.506
998.506
998.506
998.506
998.507
998.507
998.508
998.508
998.509
998.51
998.51
998.511
998.512
998.513
998.513
998.514
998.515
998.516
998.516
998.517
998.517
998.518
998.518
998.518
998.519
998.519
998.519
998.519
998.518
998.518
998.517
998.517
998.516
998.515
998.513
998.512
998.51
998.508
998.506
998.503
998.525
998.521
998.519
998.518
998.516
998.514
998.513
998.512
998.511
998.511
998.51
998.51
998.51
998.51
998.51
998.51
998.51
998.511
998.511
998.512
998.512
998.513
998.513
998.514
998.514
998.515
998.515
998.516
998.516
998.517
998.517
998.518
998.518
998.518
998.518
998.518
998.518
998.518
998.517
998.517
998.516
998.515
998.514
998.513
998.512
998.51
998.508
998.506
998.504
998.501
998.53
998.527
998.525
998.523
998.521
998.519
998.518
998.516
998.515
998.514
998.514
998.513
998.513
998.513
998.513
998.513
998.513
998.513
998.513
998.513
998.514
998.514
998.514
998.515
998.515
998.516
998.516
998.516
998.517
998.517
998.517
998.517
998.517
998.518
998.517
998.517
998.517
998.517
998.516
998.516
998.515
998.514
998.513
998.512
998.51
998.508
998.507
998.505
998.502
998.5
998.535
998.532
998.53
998.527
998.525
998.523
998.522
998.52
998.519
998.518
998.517
998.517
998.516
998.516
998.515
998.515
998.515
998.515
998.515
998.515
998.515
998.516
998.516
998.516
998.516
998.516
998.517
998.517
998.517
998.517
998.517
998.517
998.517
998.517
998.517
998.517
998.516
998.516
998.515
998.515
998.514
998.513
998.512
998.51
998.509
998.507
998.505
998.503
998.501
998.498
998.54
998.536
998.534
998.532
998.529
998.527
998.526
998.524
998.523
998.522
998.521
998.52
998.519
998.519
998.518
998.518
998.517
998.517
998.517
998.517
998.517
998.517
998.517
998.517
998.517
998.517
998.517
998.517
998.517
998.517
998.517
998.517
998.517
998.517
998.517
998.516
998.516
998.515
998.514
998.514
998.513
998.512
998.511
998.509
998.508
998.506
998.504
998.502
998.5
998.497
998.544
998.541
998.538
998.536
998.533
998.531
998.529
998.528
998.526
998.525
998.524
998.523
998.522
998.521
998.521
998.52
998.52
998.519
998.519
998.519
998.518
998.518
998.518
998.518
998.518
998.518
998.518
998.518
998.518
998.518
998.517
998.517
998.517
998.517
998.516
998.516
998.515
998.514
998.514
998.513
998.512
998.511
998.51
998.508
998.507
998.505
998.503
998.501
998.499
998.497
998.548
998.545
998.542
998.54
998.537
998.535
998.533
998.531
998.53
998.528
998.527
998.526
998.525
998.524
998.523
998.522
998.522
998.521
998.521
998.52
998.52
998.52
998.519
998.519
998.519
998.519
998.519
998.518
998.518
998.518
998.518
998.517
998.517
998.516
998.516
998.515
998.515
998.514
998.513
998.512
998.511
998.51
998.509
998.507
998.506
998.504
998.502
998.5
998.498
998.496
998.552
998.548
998.546
998.543
998.541
998.538
998.536
998.534
998.533
998.531
998.53
998.528
998.527
998.526
998.525
998.524
998.524