/*--------------------------------*- C++ -*----------------------------------*\
  =========                 |
  \\      /  F ield         | OpenFOAM: The Open Source CFD Toolbox
   \\    /   O peration     | Website:  https://openfoam.org
    \\  /    A nd           | Version:  6
     \\/     M anipulation  |
\*---------------------------------------------------------------------------*/
FoamFile
{
    version     2.0;
    format      ascii;
    class       surfaceScalarField;
    location    "0.6";
    object      phi;
}
// * * * * * * * * * * * * * * * * * * * * * * * * * * * * * * * * * * * * * //

dimensions      [0 3 -1 0 0 0 0];

internalField   nonuniform List<scalar> 
11030
(
0.00011508
1.94443e-08
0.000115198
-1.18696e-07
0.000115178
2.01684e-08
0.000115009
1.6935e-07
0.000114802
2.07205e-07
0.000114557
2.44525e-07
0.000114243
3.13686e-07
0.000113846
3.96987e-07
0.000113359
4.86873e-07
0.000112774
5.85972e-07
0.000112076
6.97087e-07
0.000111255
8.21846e-07
0.000110293
9.62008e-07
0.000109173
1.11984e-06
0.000107875
1.29792e-06
0.000106376
1.49878e-06
0.000104652
1.7242e-06
0.000102678
1.97361e-06
0.000100437
2.24097e-06
2.50534e-06
9.79319e-05
0.000115348
-2.32434e-07
0.000115269
-3.98163e-08
0.000115073
2.16126e-07
0.000114874
3.68781e-07
0.00011464
4.41338e-07
0.000114342
5.41701e-07
0.000113972
6.83919e-07
0.000113522
8.47404e-07
0.000112982
1.02688e-06
0.000112341
1.22672e-06
0.000111587
1.45094e-06
0.000110706
1.70261e-06
0.000109683
1.98534e-06
0.000108499
2.30365e-06
0.000107135
2.66256e-06
0.000105566
3.06701e-06
0.00010377
3.52039e-06
0.000101722
4.0214e-06
9.94055e-05
4.55794e-06
5.09259e-06
9.68182e-05
0.000115177
-3.32511e-07
0.00011514
-3.6903e-09
0.000114962
3.94747e-07
0.00011472
6.10404e-07
0.000114436
7.25043e-07
0.000114092
8.86095e-07
0.000113673
1.10336e-06
0.00011317
1.34984e-06
0.000112576
1.62091e-06
0.00011188
1.92302e-06
0.000111069
2.26164e-06
0.000110131
2.64122e-06
0.000109049
3.06715e-06
0.000107806
3.54608e-06
0.000106384
4.08537e-06
0.000104758
4.69222e-06
0.000102907
5.37161e-06
0.000100807
6.12171e-06
9.84397e-05
6.92501e-06
7.73048e-06
9.58018e-05
0.000115088
-3.65294e-07
0.000115003
8.07231e-08
0.000114798
6.00133e-07
0.000114523
8.8471e-07
0.0001142
1.04893e-06
0.000113811
1.27438e-06
0.000113345
1.56986e-06
0.000112792
1.90233e-06
0.000112146
2.26726e-06
0.000111396
2.67307e-06
0.000110531
3.12667e-06
0.000109538
3.63381e-06
0.000108404
4.20153e-06
0.000107112
4.83842e-06
0.000105643
5.55399e-06
0.000103978
6.3575e-06
0.000102094
7.25544e-06
9.997e-05
8.2455e-06
9.75898e-05
9.30522e-06
1.03725e-05
9.49478e-05
0.000114998
-3.30131e-07
0.000114854
2.24316e-07
0.000114611
8.43523e-07
0.000114301
1.19399e-06
0.000113938
1.41197e-06
0.000113507
1.70601e-06
0.000112993
2.08324e-06
0.000112391
2.50459e-06
0.000111693
2.96532e-06
0.000110891
3.47561e-06
0.000109974
4.04358e-06
0.000108931
4.67614e-06
0.000107751
5.38178e-06
0.000106419
6.1708e-06
0.000104918
7.05453e-06
0.000103232
8.04397e-06
0.00010134
9.14686e-06
9.92254e-05
1.03604e-05
9.68732e-05
1.16574e-05
1.29675e-05
9.42782e-05
0.000114897
-2.16633e-07
0.00011469
4.31282e-07
0.00011441
1.12348e-06
0.000114067
1.53707e-06
0.000113664
1.81484e-06
0.000113187
2.18303e-06
0.000112624
2.64608e-06
0.000111969
3.1591e-06
0.000111218
3.71697e-06
0.000110362
4.33133e-06
0.000109394
5.01141e-06
0.000108305
5.76509e-06
0.000107085
6.60207e-06
0.000105722
7.53404e-06
0.000104203
8.57372e-06
0.000102513
9.73342e-06
0.000100638
1.10217e-05
9.85634e-05
1.24353e-05
9.62778e-05
1.3943e-05
1.54686e-05
9.37767e-05
0.000114769
9.96198e-10
0.0001145
7.00405e-07
0.000114202
1.42119e-06
0.000113832
1.90712e-06
0.000113386
2.26104e-06
0.000112857
2.71143e-06
0.000112239
3.26456e-06
0.000111526
3.87166e-06
0.000110716
4.52689e-06
0.000109805
5.24323e-06
0.000108785
6.03103e-06
0.000107651
6.89908e-06
0.000106395
7.85802e-06
0.000105009
8.9205e-06
0.000103482
1.01001e-05
0.000101806
1.14099e-05
9.99683e-05
1.2859e-05
9.796e-05
1.44436e-05
9.57733e-05
1.61297e-05
1.78396e-05
9.34023e-05
0.000114572
3.90428e-07
0.000114258
1.01488e-06
0.000113996
1.68274e-06
0.00011361
2.29372e-06
0.000113108
2.76247e-06
0.000112517
3.30314e-06
0.000111833
3.94863e-06
0.000111053
4.65091e-06
0.000110178
5.40184e-06
0.000109206
6.21576e-06
0.000108132
7.10454e-06
0.000106954
8.07778e-06
0.000105665
9.14673e-06
0.000104261
1.03245e-05
0.000102736
1.16249e-05
0.000101085
1.3061e-05
9.93022e-05
1.4642e-05
9.73816e-05
1.63642e-05
9.53184e-05
1.81929e-05
2.00576e-05
9.31004e-05
0.000114145
1.18483e-06
0.000113936
1.22389e-06
0.000113831
1.78733e-06
0.000113411
2.71392e-06
0.000112822
3.35152e-06
0.00011215
3.97524e-06
0.000111388
4.71019e-06
0.000110532
5.50693e-06
0.000109584
6.34952e-06
0.000108546
7.25435e-06
0.000107415
8.23556e-06
0.000106189
9.30336e-06
0.000104867
1.0469e-05
0.000103446
1.17453e-05
0.000101926
1.31454e-05
0.000100305
1.46813e-05
9.85855e-05
1.63617e-05
9.67658e-05
1.81839e-05
9.48447e-05
2.0114e-05
2.2085e-05
9.28173e-05
0.00011337
2.75764e-06
0.000113778
8.16176e-07
0.000113799
1.767e-06
0.000113222
3.29024e-06
0.000112509
4.06486e-06
0.000111742
4.742e-06
0.000110892
5.56068e-06
0.000109952
6.44651e-06
0.000108928
7.37343e-06
0.000107821
8.36111e-06
0.000106631
9.42579e-06
0.000105357
1.05777e-05
0.000103998
1.18275e-05
0.000102557
1.31865e-05
0.000101036
1.4666e-05
9.94425e-05
1.62753e-05
9.77845e-05
1.80197e-05
9.6072e-05
1.98964e-05
9.42958e-05
2.18902e-05
9.24472e-05
2.39336e-05
8.76109e-05
1.0321e-05
7.71482e-05
1.04627e-05
6.65307e-05
1.06176e-05
5.57547e-05
1.0776e-05
4.4837e-05
1.09177e-05
3.38534e-05
1.09836e-05
2.30194e-05
1.0834e-05
1.2848e-05
1.01714e-05
4.41107e-06
8.43696e-06
4.41107e-06
8.65907e-05
2.05485e-05
7.62148e-05
2.08386e-05
6.56859e-05
2.11464e-05
5.50034e-05
2.14585e-05
4.4188e-05
2.17331e-05
3.33205e-05
2.18512e-05
2.26187e-05
2.15358e-05
1.25933e-05
2.01968e-05
4.3505e-06
1.66797e-05
8.76157e-06
8.56692e-05
3.06811e-05
7.53821e-05
3.11257e-05
6.49418e-05
3.15867e-05
5.435e-05
3.20503e-05
4.36299e-05
3.24532e-05
3.28658e-05
3.26152e-05
2.22804e-05
3.21212e-05
1.23875e-05
3.00897e-05
4.26778e-06
2.47994e-05
1.30294e-05
8.48964e-05
4.07325e-05
7.46869e-05
4.13352e-05
6.43246e-05
4.19491e-05
5.38117e-05
4.25632e-05
4.31724e-05
4.30925e-05
3.24936e-05
4.32941e-05
2.20019e-05
4.26129e-05
1.2214e-05
3.98775e-05
4.19922e-06
3.28142e-05
1.72286e-05
8.42914e-05
5.07193e-05
7.41428e-05
5.14838e-05
6.38421e-05
5.22497e-05
5.33908e-05
5.30145e-05
4.28125e-05
5.36708e-05
3.21963e-05
5.39103e-05
2.17735e-05
5.30357e-05
1.20662e-05
4.95848e-05
4.13845e-06
4.0742e-05
2.1367e-05
8.38378e-05
6.06582e-05
7.37326e-05
6.15889e-05
6.3476e-05
6.25063e-05
5.30666e-05
6.34238e-05
4.25274e-05
6.421e-05
3.19503e-05
6.44873e-05
2.15735e-05
6.34126e-05
1.19276e-05
5.92307e-05
4.07686e-06
4.85927e-05
2.54439e-05
8.34935e-05
7.0567e-05
7.3414e-05
7.16684e-05
6.31834e-05
7.27369e-05
5.27956e-05
7.38117e-05
4.22732e-05
7.47323e-05
3.17137e-05
7.50468e-05
2.13654e-05
7.3761e-05
1.17719e-05
6.88243e-05
4.00121e-06
5.63633e-05
2.94451e-05
8.31944e-05
8.04729e-05
7.31189e-05
8.17439e-05
6.28955e-05
8.29604e-05
5.25078e-05
8.41994e-05
4.19822e-05
8.52579e-05
3.14248e-05
8.56043e-05
2.10986e-05
8.40871e-05
1.1564e-05
7.83589e-05
3.89422e-06
6.40331e-05
3.33393e-05
8.28368e-05
9.04535e-05
7.27363e-05
9.18443e-05
6.2498e-05
9.31987e-05
5.20921e-05
9.46052e-05
4.15543e-05
9.57958e-05
3.10004e-05
9.61581e-05
2.07102e-05
9.43774e-05
1.12602e-05
8.78089e-05
3.73144e-06
7.15618e-05
3.70708e-05
8.21761e-05
0.000100725
7.20586e-05
0.000101962
6.17888e-05
0.000103469
5.13707e-05
0.000105023
4.08455e-05
0.000106321
3.03323e-05
0.000106671
2.01213e-05
0.000104588
1.07981e-05
9.71321e-05
3.46271e-06
7.88972e-05
4.05335e-05
3.12287e-05
0.000106134
-3.66383e-05
2.58516e-05
0.000107339
2.0566e-05
0.000108754
1.54227e-05
0.000110167
1.05704e-05
0.000111173
6.26502e-06
0.000110977
2.85589e-06
0.000107998
6.93807e-07
9.92942e-05
-9.67718e-08
7.96878e-05
4.04367e-05
2.5258e-05
0.000110999
-3.01231e-05
2.03935e-05
0.000112203
1.56316e-05
0.000113516
1.10826e-05
0.000114716
6.91228e-06
0.000115344
3.37434e-06
0.000114515
7.88434e-07
0.000110583
-5.54518e-07
0.000100637
-6.16545e-07
7.97498e-05
3.98202e-05
1.93264e-05
0.000115349
-2.36757e-05
1.49896e-05
0.00011654
1.07881e-05
0.000117718
6.85889e-06
0.000118645
3.38855e-06
0.000118814
6.30403e-07
0.000117273
-1.12529e-06
0.000112339
-1.653e-06
0.000101165
-1.0197e-06
7.91165e-05
3.88005e-05
1.34892e-05
0.000119186
-1.73262e-05
9.69893e-06
0.000120331
6.08203e-06
0.000121334
2.79496e-06
0.000121932
3.99263e-08
0.000121569
-1.93315e-06
0.000119246
-2.86645e-06
0.000113272
-2.60657e-06
0.000100905
-1.33925e-06
7.78492e-05
3.74612e-05
7.78785e-06
0.000122508
-1.11101e-05
4.55474e-06
0.000123564
1.54135e-06
0.000124348
-1.0835e-06
0.000124557
-3.10973e-06
0.000123595
-4.29732e-06
0.000120433
-4.42722e-06
0.000113402
-3.42373e-06
9.99015e-05
-1.59089e-06
7.60164e-05
3.58703e-05
2.25065e-06
0.000125312
-5.05501e-06
-4.17076e-07
0.000126231
-2.81233e-06
0.000126743
-4.75918e-06
0.000126504
-6.04731e-06
0.000124883
-6.45431e-06
0.00012084
-5.80717e-06
0.000112755
-4.11178e-06
9.82061e-05
-1.7833e-06
7.36879e-05
3.4087e-05
-3.10335e-06
0.000127594
8.2139e-07
-5.19781e-06
0.000128326
-6.9627e-06
0.000128508
-8.2195e-06
0.00012776
-8.76474e-06
0.000125429
-8.40158e-06
0.000120477
-7.0099e-06
0.000111363
-4.67908e-06
9.58753e-05
-1.92468e-06
7.09335e-05
3.21623e-05
-8.26376e-06
0.000129348
6.51014e-06
-9.7758e-06
0.000129838
-1.08985e-05
0.000129631
-1.14553e-05
0.000128317
-1.12563e-05
0.00012523
-1.01381e-05
0.000119359
-8.03986e-06
0.000109265
-5.13402e-06
9.29695e-05
-2.02235e-06
6.78218e-05
3.014e-05
-1.32256e-05
0.000130565
1.2008e-05
-1.41428e-05
0.000130755
-1.46087e-05
0.000130097
-1.44541e-05
0.000128162
-1.35106e-05
0.000124286
-1.16571e-05
0.000117506
-8.89764e-06
0.000106506
-5.48419e-06
8.9556e-05
-2.08409e-06
6.44217e-05
2.80559e-05
-1.79798e-05
1.73203e-05
0.000131225
-1.82737e-05
0.000131049
-1.80557e-05
0.000129879
-1.71724e-05
0.000127279
-1.54876e-05
0.000122601
-1.29317e-05
0.00011495
-9.57653e-06
0.000103151
-5.74089e-06
8.57204e-05
-2.12689e-06
6.08077e-05
2.5929e-05
8.1294e-05
-3.7254e-05
-8.06783e-05
8.2129e-05
-3.09582e-05
8.31562e-05
-2.47028e-05
8.43197e-05
-1.84897e-05
8.55773e-05
-1.23677e-05
8.6881e-05
-6.35873e-06
8.81799e-05
-4.775e-07
8.94237e-05
5.26629e-06
9.05654e-05
1.08664e-05
1.63351e-05
9.15506e-05
8.19979e-05
-3.76947e-05
-8.15571e-05
8.26331e-05
-3.15934e-05
8.34604e-05
-2.55302e-05
8.44366e-05
-1.94659e-05
8.55235e-05
-1.34546e-05
8.66801e-05
-7.51529e-06
8.78629e-05
-1.66036e-06
8.90291e-05
4.10012e-06
9.01374e-05
9.75814e-06
1.53298e-05
9.11426e-05
8.26e-05
-3.79365e-05
-8.23582e-05
8.30529e-05
-3.20463e-05
8.36942e-05
-2.61715e-05
8.4492e-05
-2.02638e-05
8.54132e-05
-1.43758e-05
8.64232e-05
-8.52528e-06
8.7486e-05
-2.72314e-06
8.85657e-05
3.02044e-06
8.96273e-05
8.69652e-06
1.43223e-05
9.06348e-05
8.31245e-05
-3.80325e-05
-8.30285e-05
8.34184e-05
-3.23401e-05
8.38915e-05
-2.66446e-05
8.4522e-05
-2.08942e-05
8.52836e-05
-1.51374e-05
8.61487e-05
-9.39046e-06
8.70887e-05
-3.66305e-06
8.80743e-05
2.03481e-06
8.90768e-05
7.69403e-06
1.33314e-05
9.00677e-05
8.35634e-05
-3.80123e-05
-8.35836e-05
8.37233e-05
-3.25e-05
8.40495e-05
-2.69709e-05
8.45291e-05
-2.13738e-05
8.51431e-05
-1.57514e-05
8.58707e-05
-1.01181e-05
8.66901e-05
-4.48238e-06
8.75784e-05
1.14645e-06
8.85128e-05
6.75969e-06
1.23734e-05
8.94708e-05
8.39161e-05
-3.78901e-05
-8.40383e-05
8.39603e-05
-3.25442e-05
8.41595e-05
-2.71701e-05
8.45068e-05
-2.1721e-05
8.49889e-05
-1.62336e-05
8.55911e-05
-1.07202e-05
8.6297e-05
-5.1883e-06
8.70897e-05
3.53698e-07
8.79516e-05
5.89786e-06
1.14595e-05
8.88654e-05
8.41894e-05
-3.7676e-05
-8.44035e-05
8.41318e-05
-3.24866e-05
8.42209e-05
-2.72592e-05
8.44531e-05
-2.19532e-05
8.48194e-05
-1.65999e-05
8.53094e-05
-1.12102e-05
8.59116e-05
-5.79046e-06
8.66136e-05
-3.48362e-07
8.74024e-05
5.10911e-06
1.05967e-05
8.82652e-05
8.43921e-05
-3.73788e-05
-8.46894e-05
8.42443e-05
-3.23387e-05
8.42372e-05
-2.72521e-05
8.43693e-05
-2.20853e-05
8.46345e-05
-1.68651e-05
8.50254e-05
-1.16012e-05
8.55341e-05
-6.29921e-06
8.61522e-05
-9.66373e-07
8.687e-05
4.39131e-06
9.78801e-06
8.76786e-05
8.45332e-05
-3.70064e-05
-8.49056e-05
8.43049e-05
-3.21104e-05
8.42133e-05
-2.71606e-05
8.42581e-05
-2.21301e-05
8.44348e-05
-1.70419e-05
8.47386e-05
-1.19049e-05
8.51641e-05
-6.72467e-06
8.57054e-05
-1.5077e-06
8.63561e-05
3.74066e-06
9.03396e-06
8.71101e-05
8.46209e-05
-3.6566e-05
-8.50612e-05
8.43207e-05
-3.18103e-05
8.41546e-05
-2.69945e-05
8.41227e-05
-2.20981e-05
8.42221e-05
-1.71413e-05
8.44492e-05
-1.21321e-05
8.48007e-05
-7.07618e-06
8.52728e-05
-1.97971e-06
8.5861e-05
3.15246e-06
8.33322e-06
8.65617e-05
8.46629e-05
-3.60644e-05
-8.51646e-05
8.42985e-05
-3.14459e-05
8.40663e-05
-2.67623e-05
8.39668e-05
-2.19986e-05
8.39981e-05
-1.71725e-05
8.41578e-05
-1.22918e-05
8.44436e-05
-7.36204e-06
8.48533e-05
-2.38938e-06
8.53841e-05
2.6217e-06
7.68332e-06
8.6034e-05
8.46663e-05
-3.55077e-05
-8.52231e-05
8.42444e-05
-3.1024e-05
8.39534e-05
-2.64713e-05
8.37941e-05
-2.18393e-05
8.37652e-05
-1.71436e-05
8.38651e-05
-1.23918e-05
8.40927e-05
-7.58957e-06
8.44463e-05
-2.74305e-06
8.49246e-05
2.14345e-06
7.08119e-06
8.55267e-05
8.46373e-05
-3.49014e-05
-8.52435e-05
8.41639e-05
-3.05506e-05
8.38205e-05
-2.61278e-05
8.36079e-05
-2.16267e-05
8.35256e-05
-1.70612e-05
8.35725e-05
-1.24387e-05
8.3748e-05
-7.76506e-06
8.40513e-05
-3.04638e-06
8.44817e-05
1.71305e-06
6.52356e-06
8.50394e-05
8.45812e-05
-3.42507e-05
-8.52319e-05
8.40617e-05
-3.00312e-05
8.36715e-05
-2.57376e-05
8.34115e-05
-2.13667e-05
8.32815e-05
-1.69313e-05
8.32811e-05
-1.24383e-05
8.341e-05
-7.89396e-06
8.36679e-05
-3.30435e-06
8.40548e-05
1.32623e-06
6.00714e-06
8.45712e-05
8.45029e-05
-3.35602e-05
-8.51935e-05
8.39422e-05
-2.94705e-05
8.351e-05
-2.53053e-05
8.32075e-05
-2.10643e-05
8.30349e-05
-1.67586e-05
8.29921e-05
-1.23955e-05
8.30791e-05
-7.98098e-06
8.32961e-05
-3.52132e-06
8.36432e-05
9.79141e-07
5.52881e-06
8.41215e-05
8.44067e-05
-3.28339e-05
-8.5133e-05
8.3809e-05
-2.88728e-05
8.33392e-05
-2.48355e-05
8.29986e-05
-2.07237e-05
8.27877e-05
-1.65477e-05
8.27067e-05
-1.23145e-05
8.27559e-05
-8.0302e-06
8.29357e-05
-3.70113e-06
8.32465e-05
6.68338e-07
5.08564e-06
8.36897e-05
8.42962e-05
-3.20756e-05
-8.50546e-05
8.36653e-05
-2.82418e-05
8.31617e-05
-2.43319e-05
8.27868e-05
-2.03489e-05
8.25414e-05
-1.63023e-05
8.2426e-05
-1.2199e-05
8.24409e-05
-8.04519e-06
8.25869e-05
-3.84711e-06
8.28645e-05
3.90755e-07
4.67495e-06
8.32752e-05
8.41747e-05
-3.12885e-05
-8.49618e-05
8.35139e-05
-2.75811e-05
8.29799e-05
-2.37978e-05
8.25741e-05
-1.99431e-05
8.22976e-05
-1.60258e-05
8.21509e-05
-1.20523e-05
8.21347e-05
-8.02905e-06
8.22499e-05
-3.96223e-06
8.2497e-05
1.43658e-07
4.2943e-06
8.28776e-05
8.40448e-05
-3.04755e-05
-8.48577e-05
8.33572e-05
-2.68935e-05
8.27958e-05
-2.32364e-05
8.23621e-05
-1.95095e-05
8.20573e-05
-1.5721e-05
8.18823e-05
-1.18772e-05
8.18378e-05
-7.98455e-06
8.19246e-05
-4.04909e-06
8.21437e-05
-7.53958e-08
3.94144e-06
8.24965e-05
8.39089e-05
-2.96394e-05
-8.47451e-05
8.31972e-05
-2.61818e-05
8.2611e-05
-2.26502e-05
8.21521e-05
-1.90506e-05
8.18217e-05
-1.53905e-05
8.16208e-05
-1.16763e-05
8.15504e-05
-7.91412e-06
8.16113e-05
-4.11003e-06
8.18045e-05
-2.68597e-07
3.61436e-06
8.21316e-05
8.37692e-05
-2.87823e-05
-8.46262e-05
8.30357e-05
-2.54483e-05
8.24271e-05
-2.20417e-05
8.19453e-05
-1.85688e-05
8.15916e-05
-1.50368e-05
8.13671e-05
-1.14519e-05
8.12729e-05
-7.81995e-06
8.131e-05
-4.14713e-06
8.14793e-05
-4.3792e-07
3.3112e-06
8.17825e-05
8.36273e-05
-2.79064e-05
-8.45032e-05
8.28741e-05
-2.46951e-05
8.22453e-05
-2.14128e-05
8.17426e-05
-1.80661e-05
8.13677e-05
-1.46619e-05
8.11216e-05
-1.12058e-05
8.10056e-05
-7.70398e-06
8.10208e-05
-4.16226e-06
8.1168e-05
-5.85153e-07
3.03028e-06
8.14489e-05
8.34847e-05
-2.70136e-05
-8.43776e-05
8.27138e-05
-2.39241e-05
8.20665e-05
-2.07656e-05
8.15449e-05
-1.75446e-05
8.11506e-05
-1.42675e-05
8.08848e-05
-1.094e-05
8.07488e-05
-7.56796e-06
8.07436e-05
-4.15712e-06
8.08704e-05
-7.11921e-07
2.77004e-06
8.11306e-05
8.33428e-05
-2.61054e-05
-8.4251e-05
8.25557e-05
-2.3137e-05
8.18917e-05
-2.01016e-05
8.13529e-05
-1.70057e-05
8.09408e-05
-1.38554e-05
8.06568e-05
-1.06561e-05
8.05024e-05
-7.4135e-06
8.04785e-05
-4.13325e-06
8.05863e-05
-8.19711e-07
2.52906e-06
8.08273e-05
8.32025e-05
-2.51833e-05
-8.41246e-05
8.24008e-05
-2.23353e-05
8.17216e-05
-1.94225e-05
8.1167e-05
-1.64511e-05
8.07387e-05
-1.3427e-05
8.04381e-05
-1.03555e-05
8.02666e-05
-7.24202e-06
8.02254e-05
-4.09206e-06
8.03156e-05
-9.09884e-07
2.30601e-06
8.05386e-05
8.30648e-05
-2.42486e-05
-8.39994e-05
8.22498e-05
-2.15203e-05
8.15568e-05
-1.87294e-05
8.09877e-05
-1.58821e-05
8.05445e-05
-1.29838e-05
8.02286e-05
-1.00396e-05
8.00414e-05
-7.05485e-06
7.99842e-05
-4.03482e-06
8.0058e-05
-9.83695e-07
2.09967e-06
8.02643e-05
8.29304e-05
-2.33026e-05
-8.38764e-05
8.21033e-05
-2.06933e-05
8.13976e-05
-1.80237e-05
8.08154e-05
-1.52999e-05
8.03585e-05
-1.25268e-05
8.00285e-05
-9.70958e-06
7.98268e-05
-6.85318e-06
7.97547e-05
-3.96273e-06
7.98134e-05
-1.0423e-06
1.90891e-06
8.00041e-05
8.27999e-05
-2.23462e-05
-8.37563e-05
8.19619e-05
-1.98552e-05
8.12446e-05
-1.73065e-05
8.06504e-05
-1.47056e-05
8.01809e-05
-1.20574e-05
7.98379e-05
-9.36658e-06
7.96228e-05
-6.63811e-06
7.95369e-05
-3.87686e-06
7.95814e-05
-1.08678e-06
1.73266e-06
7.97577e-05
8.26738e-05
-2.13804e-05
-8.36396e-05
8.18258e-05
-1.90072e-05
8.1098e-05
-1.65787e-05
8.04927e-05
-1.41002e-05
8.00117e-05
-1.15764e-05
7.96567e-05
-9.0116e-06
7.94292e-05
-6.41067e-06
7.93306e-05
-3.77823e-06
7.9362e-05
-1.11812e-06
1.56994e-06
7.95247e-05
8.25526e-05
-2.04061e-05
-8.3527e-05
8.16955e-05
-1.81501e-05
8.09581e-05
-1.58413e-05
8.03426e-05
-1.34847e-05
7.9851e-05
-1.10847e-05
7.94849e-05
-8.64558e-06
7.9246e-05
-6.17177e-06
7.91356e-05
-3.66777e-06
7.91547e-05
-1.13727e-06
1.41982e-06
7.93048e-05
8.24366e-05
-1.9424e-05
-8.34187e-05
8.15712e-05
-1.72846e-05
8.08249e-05
-1.50951e-05
8.02001e-05
-1.28599e-05
7.96987e-05
-1.05833e-05
7.93225e-05
-8.26938e-06
7.90731e-05
-5.92229e-06
7.89516e-05
-3.54634e-06
7.89594e-05
-1.14507e-06
1.28142e-06
7.90978e-05
8.2326e-05
-1.84349e-05
-8.33151e-05
8.1453e-05
-1.64116e-05
8.06987e-05
-1.43408e-05
8.00654e-05
-1.22266e-05
7.9555e-05
-1.0073e-05
7.91694e-05
-7.88379e-06
7.89102e-05
-5.66302e-06
7.87786e-05
-3.41475e-06
7.87759e-05
-1.14236e-06
1.15392e-06
7.89034e-05
8.2221e-05
-1.74394e-05
-8.32165e-05
8.13411e-05
-1.55318e-05
8.05795e-05
-1.35791e-05
7.99384e-05
-1.15854e-05
7.94198e-05
-9.55439e-06
7.90255e-05
-7.48955e-06
7.87572e-05
-5.39473e-06
7.86162e-05
-3.27377e-06
7.86038e-05
-1.12988e-06
1.03656e-06
7.87211e-05
8.21218e-05
-1.64381e-05
-8.31231e-05
8.12357e-05
-1.46456e-05
8.04673e-05
-1.28107e-05
7.98191e-05
-1.09372e-05
7.92929e-05
-9.02823e-06
7.88907e-05
-7.08735e-06
7.86141e-05
-5.1181e-06
7.84644e-05
-3.12408e-06
7.84429e-05
-1.10837e-06
9.2861e-07
7.85508e-05
8.20286e-05
-1.54315e-05
-8.30351e-05
8.11367e-05
-1.37538e-05
8.03623e-05
-1.20363e-05
7.97074e-05
-1.02823e-05
7.91743e-05
-8.49513e-06
7.87648e-05
-6.67783e-06
7.84805e-05
-4.83378e-06
7.83228e-05
-2.96637e-06
7.82929e-05
-1.07849e-06
8.29369e-07
7.83922e-05
8.19413e-05
-1.44203e-05
-8.29525e-05
8.10443e-05
-1.28568e-05
8.02643e-05
-1.12562e-05
7.96035e-05
-9.62154e-06
7.9064e-05
-7.95569e-06
7.86478e-05
-6.2616e-06
7.83564e-05
-4.5424e-06
7.81913e-05
-2.80126e-06
7.81537e-05
-1.04087e-06
7.38185e-07
7.82449e-05
8.186e-05
-1.34048e-05
-8.28754e-05
8.09584e-05
-1.19553e-05
8.01733e-05
-1.04712e-05
7.95071e-05
-8.95533e-06
7.89618e-05
-7.41044e-06
7.85395e-05
-5.83921e-06
7.82416e-05
-4.24453e-06
7.80697e-05
-2.62933e-06
7.80249e-05
-9.96144e-07
6.5444e-07
7.81087e-05
8.17848e-05
-1.23856e-05
-8.2804e-05
8.0879e-05
-1.10495e-05
8.00894e-05
-9.68153e-06
7.94182e-05
-8.28418e-06
7.88677e-05
-6.85991e-06
7.84397e-05
-5.4112e-06
7.81359e-05
-3.94071e-06
7.79577e-05
-2.45115e-06
7.79064e-05
-9.44866e-07
5.77539e-07
7.79833e-05
8.17156e-05
-1.1363e-05
-8.27382e-05
8.08061e-05
-1.014e-05
8.00124e-05
-8.88781e-06
7.93368e-05
-7.60859e-06
7.87815e-05
-6.30459e-06
7.83484e-05
-4.97807e-06
7.80391e-05
-3.63147e-06
7.78552e-05
-2.26725e-06
7.77979e-05
-8.8759e-07
5.06915e-07
7.78686e-05
8.16525e-05
-1.03375e-05
-8.2678e-05
8.07397e-05
-9.22724e-06
7.99423e-05
-8.09043e-06
7.92628e-05
-6.929e-06
7.87031e-05
-5.74494e-06
7.82653e-05
-4.5403e-06
7.79512e-05
-3.31729e-06
7.7762e-05
-2.07814e-06
7.76993e-05
-8.24836e-07
4.42026e-07
7.77642e-05
8.15954e-05
-9.30938e-06
-8.26235e-05
8.06798e-05
-8.31157e-06
7.98791e-05
-7.28982e-06
7.9196e-05
-6.24584e-06
7.86324e-05
-5.18141e-06
7.81905e-05
-4.09835e-06
7.78718e-05
-2.99864e-06
7.7678e-05
-1.8843e-06
7.76103e-05
-7.57109e-07
3.82352e-07
7.76699e-05
8.15444e-05
-8.27909e-06
-8.25747e-05
8.06262e-05
-7.39338e-06
7.98227e-05
-6.48636e-06
7.91364e-05
-5.55952e-06
7.85694e-05
-4.6144e-06
7.81237e-05
-3.65264e-06
7.7801e-05
-2.67597e-06
7.76029e-05
-1.68619e-06
7.75307e-05
-6.8489e-07
3.27388e-07
7.75857e-05
8.14993e-05
-7.24698e-06
-8.25314e-05
8.05789e-05
-6.47305e-06
7.9773e-05
-5.68045e-06
7.90839e-05
-4.87043e-06
7.85139e-05
-4.04435e-06
7.80648e-05
-3.2036e-06
7.77386e-05
-2.34972e-06
7.75367e-05
-1.48426e-06
7.74604e-05
-6.08646e-07
2.76646e-07
7.75112e-05
8.14601e-05
-6.21339e-06
-8.24937e-05
8.0538e-05
-5.55093e-06
7.973e-05
-4.87244e-06
7.90385e-05
-4.17896e-06
7.84658e-05
-3.47162e-06
7.80138e-05
-2.75163e-06
7.76844e-05
-2.02029e-06
7.74791e-05
-1.27896e-06
7.73993e-05
-5.2883e-07
2.29649e-07
7.74463e-05
8.14268e-05
-5.17868e-06
-8.24615e-05
8.05032e-05
-4.6274e-06
7.96935e-05
-4.06271e-06
7.9e-05
-3.48546e-06
7.8425e-05
-2.8966e-06
7.79705e-05
-2.29712e-06
7.76383e-05
-1.68811e-06
7.74301e-05
-1.0707e-06
7.73471e-05
-4.45891e-07
1.85928e-07
7.73908e-05
8.13993e-05
-4.14319e-06
-8.24348e-05
8.04747e-05
-3.70278e-06
7.96635e-05
-3.2516e-06
7.89684e-05
-2.79031e-06
7.83915e-05
-2.31966e-06
7.79348e-05
-1.84046e-06
7.76003e-05
-1.35358e-06
7.73895e-05
-8.59907e-07
7.73038e-05
-3.6027e-07
1.45018e-07
7.73447e-05
8.13775e-05
-3.10726e-06
-8.24134e-05
8.04521e-05
-2.77742e-06
7.964e-05
-2.43945e-06
7.89435e-05
-2.09384e-06
7.8365e-05
-1.74117e-06
7.79066e-05
-1.38203e-06
7.75701e-05
-1.01708e-06
7.73572e-05
-6.47003e-07
7.72693e-05
-2.72411e-07
1.0645e-07
7.73079e-05
8.13614e-05
-2.07121e-06
-8.23975e-05
8.04357e-05
-1.85163e-06
7.96228e-05
-1.62658e-06
7.89254e-05
-1.3964e-06
7.83457e-05
-1.16147e-06
7.78858e-05
-9.22202e-07
7.75478e-05
-6.79031e-07
7.73332e-05
-4.32416e-07
7.72436e-05
-1.82763e-07
6.97511e-08
7.72803e-05
8.1351e-05
-1.03537e-06
-8.23868e-05
8.04251e-05
-9.25733e-07
7.96118e-05
-8.13328e-07
7.89138e-05
-6.98333e-07
7.83333e-05
-5.8095e-07
7.78724e-05
-4.61384e-07
7.75333e-05
-3.39854e-07
7.73174e-05
-2.1659e-07
7.72265e-05
-9.17954e-08
3.44359e-08
7.72618e-05
8.13461e-05
-8.23814e-05
8.04203e-05
7.9607e-05
7.89087e-05
7.83277e-05
7.78663e-05
7.75265e-05
7.73099e-05
7.72181e-05
7.72525e-05
8.00885e-05
1.9157e-06
7.95756e-05
1.32907e-06
7.93118e-05
2.03072e-06
7.9353e-05
3.24905e-06
7.93338e-05
4.08411e-06
7.9245e-05
4.83078e-06
7.91443e-05
5.66139e-06
7.90421e-05
6.54868e-06
7.89369e-05
7.47865e-06
7.88329e-05
8.46511e-06
7.87376e-05
9.52114e-06
7.86592e-05
1.06561e-05
7.86077e-05
1.18789e-05
7.85952e-05
1.3199e-05
7.86364e-05
1.46248e-05
7.87493e-05
1.61623e-05
7.89564e-05
1.78127e-05
7.92889e-05
1.95638e-05
7.98119e-05
2.13672e-05
2.30672e-05
7.99278e-05
1.27824e-06
7.96392e-05
1.61769e-06
7.94221e-05
2.24782e-06
7.94264e-05
3.24477e-06
7.94132e-05
4.09727e-06
7.93552e-05
4.88878e-06
7.92893e-05
5.72733e-06
7.92252e-05
6.6128e-06
7.91635e-05
7.54031e-06
7.9109e-05
8.51962e-06
7.9069e-05
9.56113e-06
7.90521e-05
1.0673e-05
7.90684e-05
1.18627e-05
7.91301e-05
1.31373e-05
7.92522e-05
1.45027e-05
7.94529e-05
1.59617e-05
7.97546e-05
1.7511e-05
8.01857e-05
1.91328e-05
8.07812e-05
2.07716e-05
2.22913e-05
7.96054e-05
9.86092e-07
7.95558e-05
1.66727e-06
7.94558e-05
2.34779e-06
7.94557e-05
3.24494e-06
7.9458e-05
4.09492e-06
7.94357e-05
4.91109e-06
7.94073e-05
5.75571e-06
7.9382e-05
6.63808e-06
7.93631e-05
7.55923e-06
7.93558e-05
8.52692e-06
7.93674e-05
9.54951e-06
7.94066e-05
1.06339e-05
7.94832e-05
1.1786e-05
7.96094e-05
1.30111e-05
7.97993e-05
1.43127e-05
8.00699e-05
1.56911e-05
8.04406e-05
1.71403e-05
8.09329e-05
1.86405e-05
8.15669e-05
2.01377e-05
2.15e-05
7.94744e-05
8.41638e-07
7.94802e-05
1.66145e-06
7.94494e-05
2.37859e-06
7.94659e-05
3.22845e-06
7.94876e-05
4.07324e-06
7.94971e-05
4.90152e-06
7.95043e-05
5.74856e-06
7.95164e-05
6.62591e-06
7.95381e-05
7.53759e-06
7.95748e-05
8.49017e-06
7.96339e-05
9.49047e-06
7.97236e-05
1.05442e-05
7.98536e-05
1.1656e-05
8.00353e-05
1.28294e-05
8.02818e-05
1.40662e-05
8.06082e-05
1.53648e-05
8.10308e-05
1.67176e-05
8.15668e-05
1.81045e-05
8.22302e-05
1.94743e-05
2.07016e-05
7.94149e-05
7.7108e-07
7.94378e-05
1.63854e-06
7.94438e-05
2.37267e-06
7.94743e-05
3.19789e-06
7.95126e-05
4.03501e-06
7.95484e-05
4.86565e-06
7.95866e-05
5.7104e-06
7.96326e-05
6.5799e-06
7.96911e-05
7.47908e-06
7.97677e-05
8.41356e-06
7.98693e-05
9.3889e-06
8.00038e-05
1.04097e-05
8.01803e-05
1.14794e-05
8.04093e-05
1.26004e-05
8.07026e-05
1.37729e-05
8.10734e-05
1.4994e-05
8.15355e-05
1.62555e-05
8.21025e-05
1.75375e-05
8.27844e-05
1.87923e-05
1.99025e-05
7.93938e-05
7.34991e-07
7.94211e-05
1.61119e-06
7.94455e-05
2.34831e-06
7.94867e-05
3.15671e-06
7.95384e-05
3.98329e-06
7.95951e-05
4.80891e-06
7.96591e-05
5.64644e-06
7.97343e-05
6.50468e-06
7.98251e-05
7.38829e-06
7.99367e-05
8.30195e-06
8.00755e-05
9.25013e-06
8.02488e-05
1.02364e-05
8.04649e-05
1.12633e-05
8.07335e-05
1.23319e-05
8.10649e-05
1.34415e-05
8.14705e-05
1.45885e-05
8.19619e-05
1.57641e-05
8.255e-05
1.69495e-05
8.32421e-05
1.81001e-05
1.91063e-05
7.9392e-05
7.13409e-07
7.94203e-05
1.58286e-06
7.94545e-05
2.31415e-06
7.95039e-05
3.10724e-06
7.95667e-05
3.92053e-06
7.96399e-05
4.73569e-06
7.97249e-05
5.56151e-06
7.98245e-05
6.40501e-06
7.99427e-05
7.27008e-06
8.00842e-05
8.16048e-06
8.02547e-05
9.07965e-06
8.04608e-05
1.00303e-05
8.07101e-05
1.10139e-05
8.10111e-05
1.20309e-05
8.13728e-05
1.30797e-05
8.18051e-05
1.41562e-05
8.23175e-05
1.52517e-05
8.29189e-05
1.63481e-05
8.36147e-05
1.74043e-05
1.83176e-05
7.9399e-05
6.97194e-07
7.94284e-05
1.55345e-06
7.94688e-05
2.27377e-06
7.95251e-05
3.05093e-06
7.95971e-05
3.84858e-06
7.96835e-05
4.64926e-06
7.97854e-05
5.45961e-06
7.99052e-05
6.28521e-06
8.00462e-05
7.12908e-06
8.02126e-05
7.99408e-06
8.04095e-05
8.88277e-06
8.06428e-05
9.79699e-06
8.09191e-05
1.07376e-05
8.1246e-05
1.17041e-05
8.16312e-05
1.26945e-05
8.20831e-05
1.37044e-05
8.26096e-05
1.47251e-05
8.3218e-05
1.57398e-05
8.39121e-05
1.67101e-05
1.75403e-05
7.94098e-05
6.82351e-07
7.9441e-05
1.52222e-06
7.94862e-05
2.22857e-06
7.95485e-05
2.98867e-06
7.96283e-05
3.76874e-06
7.97255e-05
4.55201e-06
7.98412e-05
5.34394e-06
7.99774e-05
6.149e-06
8.01371e-05
6.96945e-06
8.03238e-05
7.80731e-06
8.05422e-05
8.6644e-06
8.07974e-05
9.5418e-06
8.10952e-05
1.04397e-05
8.14421e-05
1.13572e-05
8.18448e-05
1.22918e-05
8.23103e-05
1.32389e-05
8.28453e-05
1.41901e-05
8.34553e-05
1.51297e-05
8.41433e-05
1.60221e-05
1.6778e-05
7.9422e-05
6.67221e-07
7.94555e-05
1.48871e-06
7.95048e-05
2.1792e-06
7.95724e-05
2.92109e-06
7.96591e-05
3.68203e-06
7.97654e-05
4.44577e-06
7.98923e-05
5.21704e-06
8.00417e-05
5.99952e-06
8.02164e-05
6.79478e-06
8.04195e-05
7.60421e-06
8.0655e-05
8.42893e-06
8.09273e-05
9.26943e-06
8.12417e-05
1.01254e-05
8.16035e-05
1.09954e-05
8.20185e-05
1.18768e-05
8.24925e-05
1.27649e-05
8.3031e-05
1.36516e-05
8.36384e-05
1.45223e-05
8.43166e-05
1.53439e-05
1.60334e-05
7.94345e-05
6.5121e-07
7.94704e-05
1.45281e-06
7.95234e-05
2.12613e-06
7.95958e-05
2.84876e-06
7.96885e-05
3.58933e-06
7.98023e-05
4.33199e-06
7.99383e-05
5.08097e-06
8.00985e-05
5.83936e-06
8.02851e-05
6.60819e-06
8.0501e-05
7.38828e-06
8.07497e-05
8.18022e-06
8.10351e-05
8.98402e-06
8.13616e-05
9.79891e-06
8.17338e-05
1.06232e-05
8.21566e-05
1.1454e-05
8.26348e-05
1.22867e-05
8.31728e-05
1.31136e-05
8.3774e-05
1.3921e-05
8.44396e-05
1.46784e-05
1.53084e-05
7.94468e-05
6.342e-07
7.9485e-05
1.41465e-06
7.95413e-05
2.0698e-06
7.96178e-05
2.77227e-06
7.97157e-05
3.49147e-06
7.98357e-05
4.21194e-06
7.99792e-05
4.93748e-06
8.01478e-05
5.67073e-06
8.03437e-05
6.41229e-06
8.05695e-05
7.16253e-06
8.08281e-05
7.92161e-06
8.1123e-05
8.68914e-06
8.14578e-05
9.46405e-06
8.18366e-05
1.02444e-05
8.22634e-05
1.10272e-05
8.27421e-05
1.1808e-05
8.32763e-05
1.25795e-05
8.38686e-05
1.33288e-05
8.45192e-05
1.40278e-05
1.46045e-05
7.94588e-05
6.16268e-07
7.9499e-05
1.3745e-06
7.95581e-05
2.01067e-06
7.96382e-05
2.69221e-06
7.97403e-05
3.38929e-06
7.98655e-05
4.08676e-06
8.00149e-05
4.78809e-06
8.01901e-05
5.49553e-06
8.03931e-05
6.20933e-06
8.06261e-05
6.92953e-06
8.08917e-05
7.65594e-06
8.1193e-05
8.38787e-06
8.15331e-05
9.12401e-06
8.19152e-05
9.86228e-06
8.23428e-05
1.05997e-05
8.2819e-05
1.13318e-05
8.33466e-05
1.20518e-05
8.39276e-05
1.27478e-05
8.45617e-05
1.33937e-05
1.39227e-05
7.94703e-05
5.97561e-07
7.95122e-05
1.3327e-06
7.95736e-05
1.94923e-06
7.96566e-05
2.60923e-06
7.97623e-05
3.2836e-06
7.98915e-05
3.95751e-06
8.00455e-05
4.63413e-06
8.02256e-05
5.31538e-06
8.04337e-05
6.00124e-06
8.06718e-05
6.69148e-06
8.09421e-05
7.38563e-06
8.12472e-05
8.08279e-06
8.15897e-05
8.78147e-06
8.19725e-05
9.47952e-06
8.23982e-05
1.01739e-05
8.28695e-05
1.08605e-05
8.33884e-05
1.15328e-05
8.39564e-05
1.21798e-05
8.45727e-05
1.27774e-05
1.32636e-05
7.94814e-05
5.78245e-07
7.95245e-05
1.28959e-06
7.95878e-05
1.88597e-06
7.9673e-05
2.52393e-06
7.97815e-05
3.17516e-06
7.99138e-05
3.82516e-06
8.00712e-05
4.4768e-06
8.02548e-05
5.13172e-06
8.04664e-05
5.78969e-06
8.07076e-05
6.45024e-06
8.09805e-05
7.11273e-06
8.12872e-05
7.77608e-06
8.163e-05
8.4387e-06
8.20111e-05
9.09838e-06
8.24329e-05
9.7522e-06
8.28972e-05
1.03961e-05
8.34058e-05
1.10242e-05
8.39595e-05
1.16261e-05
8.45573e-05
1.21796e-05
1.26274e-05
7.94919e-05
5.58479e-07
7.9536e-05
1.2455e-06