/*--------------------------------*- C++ -*----------------------------------*\
  =========                 |
  \\      /  F ield         | OpenFOAM: The Open Source CFD Toolbox
   \\    /   O peration     | Website:  https://openfoam.org
    \\  /    A nd           | Version:  6
     \\/     M anipulation  |
\*---------------------------------------------------------------------------*/
FoamFile
{
    version     2.0;
    format      ascii;
    class       volVectorField;
    location    "0.6";
    object      U;
}
// * * * * * * * * * * * * * * * * * * * * * * * * * * * * * * * * * * * * * //

dimensions      [0 1 -1 0 0 0 0];

internalField   nonuniform List<vector> 
5600
(
(1.36963 0.00236111 3.74957e-19)
(1.09496 0.00295614 -6.43914e-18)
(0.98906 0.0030617 6.42454e-18)
(1.00109 0.00287554 0)
(1.01209 0.00297037 0)
(1.00851 0.00339996 0)
(1.00215 0.00392897 -1.19854e-17)
(0.996464 0.00447806 1.19582e-17)
(0.990557 0.00507889 0)
(0.983798 0.00575713 0)
(0.97611 0.0065204 0)
(0.967458 0.00737676 0)
(0.957737 0.0083396 0)
(0.946812 0.00942539 -2.3596e-17)
(0.934529 0.0106521 2.35431e-17)
(0.92072 0.0120374 -4.69821e-17)
(0.905195 0.0135943 4.68773e-17)
(0.887755 0.0153193 0)
(0.868208 0.0171703 -3.64614e-19)
(0.846404 0.0190102 0)
(1.37462 0.00444824 -3.6973e-19)
(1.09253 0.00679289 6.35001e-18)
(0.988703 0.00780976 -6.33797e-18)
(1.0023 0.00821418 0)
(1.01296 0.00893804 0)
(1.00903 0.0101517 2.44689e-17)
(1.00266 0.0115931 1.57524e-22)
(0.997044 0.0131644 -7.3854e-19)
(0.991193 0.0149079 1.16345e-22)
(0.984501 0.0168663 -2.35475e-17)
(0.976905 0.0190646 0)
(0.968373 0.0215307 -4.76506e-17)
(0.958804 0.0243028 4.68287e-17)
(0.948067 0.0274268 0)
(0.936019 0.0309529 0)
(0.922501 0.0349305 0)
(0.907335 0.039394 0)
(0.890331 0.0443305 -4.63921e-17)
(0.871297 0.0496173 4.66667e-17)
(0.849993 0.0549032 4.55272e-17)
(1.38107 0.00509835 0)
(1.092 0.010658 0)
(0.987949 0.0130047 0)
(1.00286 0.0136003 0)
(1.01377 0.0147912 2.34479e-17)
(1.00981 0.0168086 -2.41449e-17)
(1.00355 0.0191694 -1.46117e-18)
(0.998118 0.0217427 -7.29504e-19)
(0.992449 0.0246074 2.33099e-17)
(0.985957 0.0278283 -2.18208e-17)
(0.9786 0.0314431 -1.45258e-18)
(0.970356 0.0354972 4.71399e-17)
(0.961135 0.0400521 -4.77946e-17)
(0.950821 0.0451806 1.4462e-18)
(0.93929 0.0509629 4.62111e-17)
(0.926401 0.057477 -9.37288e-17)
(0.911995 0.064777 -1.44044e-18)
(0.895898 0.0728411 4.60087e-17)
(0.877915 0.0814703 -1.43568e-18)
(0.857728 0.0901161 -7.1717e-19)
(1.38917 0.00636959 0)
(1.09216 0.0140487 -1.44622e-18)
(0.986995 0.0174527 0)
(1.00319 0.0184792 0)
(1.01461 0.0202705 0)
(1.0108 0.0231241 0)
(1.00479 0.0264165 1.43967e-18)
(0.999667 0.0299957 2.44505e-17)
(0.994321 0.0339733 -2.29896e-17)
(0.98818 0.0384353 -1.43545e-18)
(0.981226 0.0434323 2.86809e-18)
(0.973457 0.0490264 0)
(0.964801 0.0552999 -4.43687e-17)
(0.955165 0.0623507 4.4325e-17)
(0.944452 0.0702854 4.57105e-17)
(0.932552 0.0792083 -4.56654e-17)
(0.919336 0.089192 9.26683e-17)
(0.904652 0.100209 -9.11525e-17)
(0.888322 0.111995 1.42288e-18)
(0.869976 0.123833 1.42208e-18)
(1.39879 0.00773159 -5.61506e-18)
(1.09247 0.0170748 7.09033e-18)
(0.985896 0.0213215 -1.13467e-17)
(1.00354 0.0228151 -1.13415e-17)
(1.01561 0.0252509 2.26741e-17)
(1.01206 0.0289491 2.26641e-17)
(1.00639 0.0331714 -2.26547e-17)
(1.00169 0.0377485 1.41533e-18)
(0.996793 0.0428175 1.41474e-18)
(0.99114 0.0484808 4.52529e-17)
(0.984745 0.0547998 -9.04675e-17)
(0.977629 0.0618504 1.41268e-18)
(0.969745 0.0697336 4.66078e-17)
(0.961032 0.0785677 1.41176e-18)
(0.951429 0.0884818 -4.37464e-17)
(0.940865 0.0996015 4.79591e-17)
(0.929251 0.112015 1.40995e-18)
(0.916471 0.125689 0)
(0.90238 0.140302 1.40874e-18)
(0.886589 0.15499 1.40854e-18)
(1.40982 0.00904316 5.49468e-18)
(1.09276 0.0197665 -5.55167e-18)
(0.984671 0.0246444 1.38914e-18)
(1.00404 0.0265455 0)
(1.01686 0.0296345 2.22344e-17)
(1.01362 0.0341855 -2.2239e-17)
(1.00838 0.0393335 1.39022e-18)
(1.00419 0.0448917 -4.72775e-17)
(0.999836 0.0510175 -2.78174e-18)
(0.994782 0.0578246 8.90289e-17)
(0.989075 0.0653818 -4.7306e-17)
(0.982765 0.0737762 -1.39164e-18)
(0.975837 0.083123 -4.73249e-17)
(0.968265 0.0935567 -4.59423e-17)
(0.96003 0.105223 8.77239e-17)
(0.95111 0.118261 8.63487e-17)
(0.941465 0.132771 -9.05434e-17)
(0.931019 0.148715 8.77747e-17)
(0.919677 0.165718 -1.79762e-16)
(0.907059 0.182792 8.78209e-17)
(1.42208 0.0103633 0)
(1.09281 0.0220512 0)
(0.983287 0.0272614 -1.35815e-18)
(1.00478 0.0295447 2.1749e-17)
(1.01847 0.0333442 -2.17682e-17)
(1.01555 0.0387774 -1.36167e-18)
(1.01076 0.0448487 -1.36289e-18)
(1.00714 0.0513625 1.3641e-18)
(1.00339 0.058494 1.3653e-18)
(0.99901 0.0663646 0)
(0.99409 0.0750485 4.51341e-17)
(0.98871 0.0846413 1.85109e-22)
(0.982887 0.095269 -4.2473e-17)
(0.976636 0.107076 -8.63921e-17)
(0.969983 0.120219 1.7568e-16)
(0.962958 0.134844 -8.65426e-17)
(0.955575 0.151054 8.79933e-17)
(0.947807 0.16881 -8.66932e-17)
(0.939616 0.187695 -8.8146e-17)
(0.930649 0.206629 8.68476e-17)
(1.4354 0.0121384 0)
(1.09212 0.023683 1.32306e-18)
(0.981637 0.0287823 -2.12116e-17)
(1.00589 0.0316965 2.25735e-17)
(1.0205 0.0363839 -2.12787e-17)
(1.01782 0.0427311 2.3977e-17)
(1.01348 0.0497127 0)
(1.01044 0.0571407 1.33635e-18)
(1.00733 0.0652012 0)
(1.00368 0.0740232 -1.34066e-18)
(0.999617 0.0836876 4.29707e-17)
(0.995262 0.0942968 -4.304e-17)
(0.99066 0.105983 -8.62191e-17)
(0.985866 0.118896 8.50086e-17)
(0.980953 0.133191 0)
(0.976006 0.149017 0)
(0.971096 0.166478 8.6777e-17)
(0.966247 0.185534 1.61297e-22)
(0.96149 0.205749 -8.70568e-17)
(0.956512 0.226023 8.85538e-17)
(1.44959 0.016436 -4.45872e-18)
(1.08924 0.0234401 4.50865e-18)
(0.979753 0.027962 0)
(1.00777 0.0329269 -1.9429e-18)
(1.02294 0.0389784 -2.07724e-17)
(1.02026 0.0462004 -2.21233e-17)
(1.01637 0.0540474 8.34864e-17)
(1.01393 0.0623493 -4.31505e-17)
(1.01148 0.0712573 -4.1943e-17)
(1.00859 0.0809124 4.33573e-17)
(1.00544 0.0914103 -8.42887e-17)
(1.00218 0.102859 1.68982e-16)
(0.998877 0.11539 1.61483e-22)
(0.995626 0.129147 -8.48983e-17)
(0.992545 0.144278 0)
(0.989775 0.160922 8.53085e-17)
(0.987447 0.179175 -1.71029e-16)
(0.985651 0.199009 8.57213e-17)
(0.984521 0.220002 0)
(0.983835 0.241047 0)
(1.46484 0.0257266 -5.56949e-18)
(1.07991 0.0181797 4.38226e-18)
(0.979017 0.0230549 0)
(1.01187 0.0335047 2.0806e-17)
(1.02572 0.0416273 -2.02397e-17)
(1.02254 0.0494496 -4.06076e-17)
(1.01925 0.0580245 -1.26113e-22)
(1.01749 0.0671574 8.1736e-17)
(1.01569 0.076842 -8.19983e-17)
(1.0136 0.0872319 4.1131e-17)
(1.01143 0.0984563 -8.25272e-17)
(1.00931 0.110628 8.27936e-17)
(1.00735 0.123871 -8.30616e-17)
(1.00566 0.138313 8.33309e-17)
(1.00441 0.154083 8.36016e-17)
(1.0038 0.17129 -8.38738e-17)
(1.00402 0.190007 0)
(1.00526 0.21023 -8.44219e-17)
(1.00778 0.231683 8.46985e-17)
(1.01147 0.253298 8.49525e-17)
(0.819049 0.0206097 0)
(0.781912 0.0228058 0)
(0.737322 0.0253231 4.24474e-17)
(0.683245 0.0282089 -2.30403e-17)
(0.616967 0.0314638 -2.51949e-17)
(0.535053 0.0349268 4.16807e-17)
(0.433874 0.0380354 -1.54802e-17)
(0.309985 0.0394522 3.49334e-17)
(0.162297 0.0365027 0)
(0.0453416 0.0206626 0)
(0.82336 0.0598153 -1.84182e-17)
(0.787012 0.0665011 -5.9365e-17)
(0.743201 0.0741923 -2.13509e-17)
(0.690039 0.0830311 2.31778e-17)
(0.624815 0.0930247 2.53412e-17)
(0.544047 0.103678 -5.58855e-17)
(0.44398 0.113296 4.66862e-17)
(0.320919 0.11778 -8.77484e-17)
(0.172754 0.108677 -1.00489e-17)
(0.0515229 0.061722 6.42441e-17)
(0.832576 0.0981936 1.84943e-17)
(0.79769 0.109208 -1.98704e-17)
(0.755381 0.121905 4.28809e-17)
(0.703995 0.136494 4.65557e-17)
(0.64081 0.152984 -5.09102e-17)
(0.56226 0.170541 -2.80719e-17)
(0.464328 0.186361 3.12766e-17)
(0.342682 0.193621 -5.29164e-17)
(0.193538 0.178044 8.08253e-17)
(0.0638934 0.101285 -1.52747e-16)
(0.847082 0.134882 3.7015e-17)
(0.81421 0.150059 0)
(0.774006 0.167552 0)
(0.725136 0.1876 -4.65907e-17)
(0.664847 0.210213 5.09484e-17)
(0.589435 0.234216 2.00079e-21)
(0.4945 0.255709 0)
(0.374736 0.265252 7.06184e-17)
(0.224064 0.243142 -6.06706e-17)
(0.0820546 0.138149 1.88169e-16)
(0.86665 0.168633 -3.69196e-17)
(0.836259 0.18767 0)
(0.798665 0.209631 8.55853e-17)
(0.752947 0.234738 0)
(0.696283 0.262998 5.07923e-17)
(0.624786 0.292891 5.60107e-17)
(0.533558 0.319447 0)
(0.416045 0.330747 1.40734e-16)
(0.263274 0.302173 -2.01484e-17)
(0.105317 0.171203 -7.02775e-17)
(0.890633 0.198534 1.89749e-21)
(0.863098 0.221023 -1.57685e-16)
(0.828532 0.247026 -2.52827e-21)
(0.786488 0.276691 0)
(0.734042 0.310017 -5.04591e-17)
(0.667077 0.345135 -5.56223e-17)
(0.580105 0.376041 0)
(0.465102 0.388492 -1.39654e-16)
(0.309689 0.353546 -1.59828e-16)
(0.132744 0.199495 2.32133e-17)
(0.918125 0.223956 7.19621e-22)
(0.893704 0.249448 1.05685e-21)
(0.862482 0.27901 1.68483e-16)
(0.824514 0.312678 -1.22569e-21)
(0.776719 0.350426 -9.98829e-17)
(0.714723 0.390022 -1.10061e-16)
(0.63237 0.424449 -3.06248e-17)
(0.519997 0.43733 3.44997e-17)
(0.361464 0.396064 1.18364e-16)
(0.163165 0.22227 2.28951e-16)
(0.948087 0.244568 -1.67399e-21)
(0.926853 0.272655 7.71359e-17)
(0.899156 0.305296 -1.6633e-16)
(0.865519 0.342407 -4.51075e-17)
(0.822627 0.383908 2.46317e-16)
(0.765843 0.427178 1.08511e-16)
(0.6883 0.464214 -1.2068e-16)
(0.578592 0.47671 0)
(0.416577 0.429129 3.87962e-17)
(0.19527 0.239109 -4.04728e-16)
(0.979442 0.260463 -1.17517e-21)
(0.960929 0.290744 -7.59409e-17)
(0.936756 0.326048 3.81528e-21)
(0.907565 0.366106 -8.87422e-17)
(0.869713 0.410749 9.68662e-17)
(0.818365 0.456941 5.3309e-17)
(0.745905 0.495717 5.92489e-17)
(0.639035 0.507058 -3.33102e-17)
(0.473272 0.453134 3.80029e-17)
(0.227769 0.250113 1.75958e-16)
(1.01022 0.273213 -6.94757e-17)
(0.993306 0.305236 -7.45412e-17)
(0.972811 0.34283 8.03055e-17)
(0.948227 0.385351 8.70181e-17)
(0.915699 0.432412 -1.89888e-16)
(0.870237 0.480473 0)
(0.803271 0.519646 0)
(0.699232 0.528564 -3.25609e-17)
(0.528958 0.468015 3.70981e-17)
(0.258671 0.255054 0)
(1.03861 0.293263 6.79469e-17)
(1.0225 0.326217 7.29809e-17)
(1.00556 0.364099 0)
(0.984833 0.406762 -8.53611e-17)
(0.956712 0.453009 0)
(0.915812 0.498546 -1.02704e-16)
(0.852462 0.53295 -5.71251e-17)
(0.749073 0.535018 -6.43084e-17)
(0.573377 0.467075 -1.46974e-16)
(0.282424 0.250523 1.70505e-16)
(1.06948 0.311307 1.54809e-21)
(1.05683 0.344755 -1.48424e-16)
(1.04334 0.382075 2.13534e-21)
(1.026 0.423578 8.68442e-17)
(1.00119 0.467188 0)
(0.962828 0.507807 1.04559e-16)
(0.900033 0.534629 0)
(0.793625 0.527133 1.31078e-16)
(0.609815 0.450532 1.47135e-20)
(0.299873 0.236214 -1.74e-16)
(1.10175 0.325224 7.00698e-17)
(1.09298 0.358157 -7.52783e-17)
(1.08278 0.394232 2.43608e-16)
(1.06837 0.433584 -8.81273e-17)
(1.04594 0.473414 -9.63185e-17)
(1.00868 0.507977 -5.30816e-17)
(0.944657 0.526279 2.2894e-21)
(0.833481 0.508777 6.66067e-17)
(0.640593 0.424061 2.66731e-16)
(0.312946 0.216201 4.42685e-17)
(1.13506 0.334208 -1.41808e-16)
(1.12987 0.3659 0)
(1.12258 0.39999 -4.35515e-21)
(1.11045 0.436223 8.92137e-17)
(1.08936 0.471242 2.43838e-16)
(1.05183 0.498871 5.37624e-17)
(0.985013 0.508211 1.19759e-16)
(0.867678 0.481061 -1.01274e-16)
(0.665052 0.389816 -1.93258e-16)
(0.321541 0.192377 1.79716e-16)
(1.1687 0.337955 7.15758e-17)
(1.16654 0.367746 7.69037e-17)
(1.16153 0.39912 -1.65968e-16)
(1.1508 0.431349 -4.50487e-17)
(1.1298 0.460652 -1.97025e-16)
(1.0904 0.480641 -1.62953e-16)
(1.01909 0.480816 -2.42054e-16)
(0.894183 0.444737 1.3652e-16)
(0.681456 0.349078 0)
(0.325046 0.165928 -2.04626e-16)
(1.20165 0.33626 1.08099e-16)
(1.20185 0.363554 0)
(1.19826 0.391561 0)
(1.18783 0.419053 0)
(1.16549 0.441965 0)
(1.12255 0.45391 1.09452e-16)
(1.04505 0.445091 1.21964e-16)
(0.911389 0.4012 0)
(0.688722 0.303526 0)
(0.323266 0.138077 -9.17376e-17)
(1.23285 0.329143 -3.61864e-17)
(1.23455 0.353429 -8.44915e-22)
(1.23137 0.377523 -4.19634e-17)
(1.21995 0.399726 4.55656e-17)
(1.19474 0.415842 -4.98368e-17)
(1.14661 0.419692 1.37441e-16)
(1.06144 0.402458 -3.0636e-17)
(0.918265 0.352243 6.91422e-17)
(0.686447 0.255084 -1.98116e-17)
(0.31638 0.110023 9.22483e-17)
(1.26123 0.316862 7.2487e-17)
(1.26344 0.337733 -3.89439e-17)
(1.25948 0.3575 0)
(1.24569 0.37406 -4.5642e-17)
(1.21607 0.383248 0)
(1.16122 0.379294 -5.50722e-17)
(1.06724 0.354587 -3.06884e-17)
(0.914328 0.299824 3.46334e-17)
(0.674786 0.20568 0)
(0.304847 0.0828551 -1.15542e-17)
(1.2858 0.299875 -5.43052e-17)
(1.28742 0.317052 3.89001e-17)
(1.28145 0.332221 0)
(1.26392 0.342979 0)
(1.2285 0.345356 4.98605e-17)
(1.16572 0.33418 -2.75027e-17)
(1.06226 0.303242 -3.06507e-17)
(0.899966 0.245903 -6.91849e-17)
(0.654585 0.157158 3.96483e-17)
(0.289389 0.0575247 -5.19203e-17)
(1.30585 0.278806 5.41026e-17)
(1.3059 0.292026 -5.5291e-22)
(1.29678 0.302337 -2.09098e-17)
(1.27422 0.307196 0)
(1.23171 0.303019 -2.48308e-17)
(1.15998 0.285441 -1.36938e-17)
(1.04662 0.249828 3.81525e-17)
(0.875593 0.192166 8.61006e-18)
(0.626485 0.111198 -4.44003e-17)
(0.270481 0.034853 5.16715e-17)
(1.05138 0.269106 -4.18276e-16)
(1.08012 0.28554 1.03464e-16)
(1.10942 0.298588 0)
(1.13962 0.307423 1.02341e-16)
(1.17035 0.311791 -3.24165e-23)
(1.20068 0.311509 -1.56469e-18)
(1.22974 0.306541 7.78368e-19)
(1.25662 0.297045 -4.99944e-17)
(1.28048 0.283343 4.98367e-17)
(1.30057 0.265997 -2.46711e-17)
(1.06083 0.256362 2.08594e-16)
(1.08736 0.270152 0)
(1.11429 0.281273 0)
(1.14199 0.288931 1.00602e-16)
(1.17034 0.292834 1.57288e-18)
(1.19852 0.292814 -7.81626e-19)
(1.22575 0.28882 7.77674e-19)
(1.25126 0.280953 4.87956e-17)
(1.27435 0.26945 -4.94174e-17)
(1.2942 0.254823 2.46561e-17)
(1.07 0.245639 0)
(1.09401 0.257188 -1.03099e-16)
(1.11851 0.266327 1.02164e-16)
(1.14374 0.272621 -1.01357e-16)
(1.16972 0.275794 0)
(1.1957 0.275694 -7.81931e-19)
(1.22103 0.272269 -9.88275e-17)
(1.24505 0.265587 0)
(1.26721 0.255821 0)
(1.28661 0.24343 -2.46837e-17)
(1.07819 0.235346 0)
(1.10008 0.244896 1.1268e-21)
(1.12235 0.252318 -1.02081e-16)
(1.14526 0.257395 1.01318e-16)
(1.16892 0.259884 7.86447e-19)
(1.19272 0.25965 -1.00901e-16)
(1.21611 0.256646 -2.62389e-22)
(1.23855 0.250913 0)
(1.2596 0.242578 0)
(1.27837 0.232036 0)
(1.08505 0.225352 -1.03704e-16)
(1.10516 0.233271 2.0565e-16)
(1.1255 0.23928 7.96835e-19)
(1.14635 0.243313 -1.02072e-16)
(1.1679 0.245179 -7.86457e-19)
(1.18966 0.244772 -1.00153e-16)
(1.21118 0.242055 1.50372e-16)
(1.23204 0.237056 -3.88241e-19)
(1.25189 0.22987 -4.91807e-17)
(1.26988 0.220836 -2.47399e-17)
(1.09063 0.215612 2.07018e-16)
(1.10916 0.222243 -1.02689e-16)
(1.12783 0.227131 1.01912e-16)
(1.1469 0.230306 1.00451e-16)
(1.16659 0.231635 1.02242e-16)
(1.18651 0.231044 9.94042e-17)
(1.20631 0.228516 -4.98951e-17)
(1.22564 0.224073 -3.88568e-19)
(1.24427 0.217796 3.87359e-19)
(1.26139 0.209977 2.47677e-17)
(1.09506 0.206117 -1.03718e-16)
(1.11219 0.211712 -1.02152e-16)
(1.12938 0.215713 -1.01829e-16)
(1.14691 0.218206 -1.01204e-16)
(1.16497 0.219099 -9.98837e-17)
(1.18326 0.218349 9.86551e-17)
(1.2015 0.215956 -4.91459e-17)
(1.21942 0.211945 0)
(1.23686 0.206389 9.93364e-17)
(1.25307 0.199547 0)
(1.09848 0.196878 0)
(1.11434 0.201625 1.02417e-16)
(1.13023 0.204924 -1.01745e-16)
(1.14641 0.206881 7.9035e-19)
(1.16304 0.207435 -1.02244e-16)
(1.1799 0.206565 -1.00255e-16)
(1.19674 0.204283 5.07373e-17)
(1.21338 0.20062 -4.9821e-17)
(1.22969 0.195646 -9.9437e-17)
(1.24499 0.189596 0)
(1.10101 0.187912 -1.02926e-16)
(1.11572 0.191961 0)
(1.13045 0.1947 1.01663e-16)
(1.14544 0.196239 1.01918e-16)
(1.16083 0.196537 1.18526e-22)
(1.17642 0.195586 9.95059e-17)
(1.19204 0.193408 0)
(1.20751 0.190037 4.98627e-17)
(1.22277 0.185541 4.99632e-17)
(1.2372 0.180139 -2.50463e-17)
(1.10277 0.179233 1.02733e-16)
(1.11644 0.182704 -1.02146e-16)
(1.13014 0.184995 1.01579e-16)
(1.14407 0.186208 -1.003e-16)
(1.15837 0.186316 1.99773e-16)
(1.17285 0.18532 -9.8756e-17)
(1.18737 0.183246 -7.81545e-19)
(1.20181 0.180128 -3.89877e-19)
(1.21611 0.176036 -4.94302e-17)
(1.2297 0.171174 2.48803e-17)
(1.10386 0.17085 0)
(1.11659 0.173841 1.02012e-16)
(1.12936 0.175771 -1.01496e-16)
(1.14237 0.176731 -7.8946e-19)
(1.15569 0.176703 -9.91011e-17)
(1.16919 0.175691 -7.84051e-19)
(1.18275 0.173721 -7.82013e-19)
(1.19625 0.170832 7.80424e-19)
(1.20967 0.167087 4.98697e-17)
(1.2225 0.162681 2.49086e-17)
(1.10439 0.162767 1.02748e-16)
(1.11627 0.16536 -3.97963e-19)
(1.12821 0.166997 0)
(1.14038 0.167761 0)
(1.15284 0.167637 7.86516e-19)
(1.16547 0.166631 -5.17645e-17)
(1.17816 0.16477 1.27645e-23)
(1.19083 0.162089 5.03793e-17)
(1.20346 0.15865 3.90006e-19)
(1.21558 0.154638 -2.49368e-17)
(1.10443 0.154985 -1.02158e-16)
(1.11555 0.157246 -1.01743e-16)
(1.12674 0.158647 -1.0133e-16)
(1.13816 0.159259 -7.88866e-19)
(1.14985 0.15907 1.26083e-23)
(1.1617 0.158087 5.02129e-17)
(1.17363 0.156335 7.82991e-19)
(1.18555 0.153847 9.41565e-23)
(1.19746 0.150682 0)
(1.20892 0.147014 0)
(1.10408 0.147502 -1.02366e-16)
(1.1145 0.149486 2.03616e-16)
(1.12502 0.150696 1.01247e-16)
(1.13576 0.15119 0)
(1.14676 0.15096 -9.989e-17)
(1.15792 0.150012 4.9445e-17)
(1.16916 0.148369 0)
(1.1804 0.146061 -5.04641e-17)
(1.19166 0.143144 -2.46201e-17)
(1.20252 0.13978 0)
(1.10339 0.140313 1.02175e-16)
(1.11319 0.142066 -1.01872e-16)
(1.1231 0.143121 0)
(1.13324 0.143524 1.00111e-16)
(1.14361 0.14327 1.00677e-16)
(1.15414 0.142366 -1.00494e-16)
(1.16476 0.14083 -4.93889e-17)
(1.17539 0.138691 0)
(1.18606 0.136 2.50363e-17)
(1.19637 0.13291 0)
(1.10243 0.133411 1.01588e-16)
(1.11167 0.134972 0)
(1.12103 0.1359 0)
(1.13061 0.136234 -1.00073e-16)
(1.14042 0.13597 -1.06023e-23)
(1.15039 0.135114 4.86931e-17)
(1.16044 0.133683 5.09882e-17)
(1.17052 0.131701 -3.91852e-19)
(1.18064 0.129218 1.95799e-19)
(1.19046 0.126375 1.95709e-19)
(1.10126 0.126788 -2.02799e-16)
(1.10999 0.128188 1.01209e-16)
(1.11884 0.129013 7.89047e-19)
(1.12792 0.129295 -7.87685e-19)
(1.13723 0.129031 -5.03393e-17)
(1.14667 0.128226 0)
(1.15621 0.126896 0)
(1.1658 0.125062 5.01997e-17)
(1.17542 0.12277 0)
(1.18477 0.120151 0)
(1.0999 0.120435 1.01607e-16)
(1.10817 0.121699 -1.01472e-16)
(1.11657 0.122441 7.88401e-19)
(1.1252 0.122684 -1.02359e-16)
(1.13404 0.122427 5.11261e-17)
(1.14302 0.121675 0)
(1.1521 0.120441 -7.85397e-19)
(1.16122 0.118746 -4.98494e-17)
(1.17039 0.11663 1.96197e-19)
(1.17931 0.114216 1.96156e-19)
(1.09841 0.114341 -1.01419e-16)
(1.10627 0.115492 3.94316e-19)
(1.11426 0.116165 -1.00833e-16)
(1.12247 0.116381 1.00747e-16)
(1.13089 0.116136 7.86555e-19)
(1.13944 0.115437 -7.86173e-19)
(1.14809 0.114295 4.95108e-17)
(1.15679 0.112728 7.85698e-19)
(1.16554 0.110775 0)
(1.17407 0.10855 0)
(1.09683 0.108497 -3.93613e-19)
(1.1043 0.109552 1.01206e-16)
(1.11192 0.110169 1.00751e-16)
(1.11975 0.110364 -1.01495e-16)
(1.12778 0.110136 5.11266e-17)
(1.13594 0.109489 0)
(1.1442 0.108434 -5.03277e-17)
(1.15251 0.106987 -3.93176e-19)
(1.16088 0.105185 3.9319e-19)
(1.16905 0.103133 0)
(1.09517 0.102892 3.93423e-19)
(1.1023 0.103865 -1.01073e-16)
(1.10957 0.104436 -1.00668e-16)
(1.11707 0.104617 1.0067e-16)
(1.12474 0.104407 -1.00681e-16)
(1.13254 0.103811 0)
(1.14044 0.102838 0)
(1.1484 0.101504 -3.93508e-19)
(1.15641 0.0998412 -2.49929e-17)
(1.16424 0.0979484 2.53909e-17)
(1.09346 0.0975138 1.00073e-16)
(1.10028 0.0984175 -1.00155e-16)
(1.10724 0.0989508 1.00586e-16)
(1.11442 0.0991227 -5.11019e-17)
(1.12177 0.0989327 7.86599e-19)
(1.12924 0.0983854 0)
(1.13681 0.09749 -5.03898e-17)
(1.14444 0.09626 -3.93841e-19)
(1.15212 0.0947262 2.56094e-17)
(1.15964 0.0929805 -2.52229e-17)
(1.09173 0.0923527 0)
(1.09827 0.0931965 1.00417e-16)
(1.10495 0.0936981 -1.00504e-16)
(1.11183 0.0938643 5.10824e-17)
(1.11888 0.0936948 4.9554e-17)
(1.12605 0.0931945 0)
(1.13332 0.0923717 4.9633e-17)
(1.14064 0.0912388 3.94181e-19)
(1.14802 0.0898246 1.972e-19)
(1.15525 0.0882147 1.97281e-19)
(1.09 0.0873975 3.90994e-19)
(1.09627 0.0881892 -3.91742e-19)
(1.10269 0.0886641 1.00421e-16)
(1.10931 0.0888271 7.85578e-19)
(1.11608 0.0886783 -5.03407e-17)
(1.12298 0.0882226 4.96119e-17)
(1.12996 0.0874676 -4.96637e-17)
(1.137 0.0864251 2.40651e-17)
(1.1441 0.0851218 5.92197e-19)
(1.15106 0.0836375 -1.97508e-19)
(1.08827 0.0826375 9.95203e-17)
(1.09431 0.0833835 3.9123e-19)
(1.10049 0.0838355 0)
(1.10686 0.083997 0)
(1.11338 0.0838686 2.25022e-23)
(1.12002 0.083455 -5.04163e-17)
(1.12675 0.0827635 1.00177e-16)
(1.13353 0.0818049 3.94862e-19)
(1.14036 0.0806045 1.97603e-19)
(1.14707 0.0792364 1.28527e-17)
(1.08657 0.0780624 -9.93376e-17)
(1.09239 0.0787676 -3.90719e-19)
(1.09835 0.0791997 -5.01284e-17)
(1.10449 0.0793609 0)
(1.11078 0.0792521 5.03409e-17)
(1.11719 0.078878 0)
(1.12367 0.0782456 -4.97249e-17)
(1.13021 0.0773651 -2.64769e-17)
(1.1368 0.0762601 3.95608e-19)
(1.14328 0.0749997 1.29442e-23)
(1.0849 0.0736618 -9.99327e-17)
(1.09052 0.0743304 3.90209e-19)
(1.09628 0.0747447 5.00874e-17)
(1.10222 0.074906 -7.84675e-19)
(1.10829 0.0748159 7.86579e-19)
(1.11448 0.0744788 0)
(1.12074 0.0739015 -7.89768e-19)
(1.12706 0.0730935 3.95517e-19)
(1.13342 0.072077 1.98009e-19)
(1.13968 0.0709164 -1.24859e-17)
(1.08328 0.0694258 9.89733e-17)
(1.08871 0.0700609 3.897e-19)
(1.09428 0.0704589 -7.81971e-19)
(1.10003 0.0706207 1.56875e-18)
(1.10591 0.070548 -7.86579e-19)
(1.11189 0.0702454 0)
(1.11795 0.0697192 -2.52883e-17)
(1.12406 0.0689786 0)
(1.13021 0.0680443 0)
(1.13627 0.0669764 1.26987e-17)
(1.0817 0.0653449 4.95896e-17)
(1.08696 0.0659488 0)
(1.09237 0.0663316 0)
(1.09794 0.0664937 -7.84072e-19)
(1.10363 0.0664371 -4.95543e-17)
(1.10943 0.0661664 0)
(1.1153 0.0656877 2.60946e-17)
(1.12122 0.0650097 -1.18855e-18)
(1.12717 0.0641518 3.96828e-19)
(1.13305 0.06317 -1.27134e-17)
(1.08018 0.0614095 -9.93844e-17)
(1.08529 0.0619841 3.88685e-19)
(1.09054 0.0623523 7.80689e-19)
(1.09594 0.0625144 -5.1729e-17)
(1.10147 0.0624725 1.02255e-16)
(1.10709 0.0622313 -7.89074e-19)
(1.11279 0.0617966 2.53195e-17)
(1.11853 0.0611767 -3.96518e-19)
(1.1243 0.0603898 1.98619e-19)
(1.13 0.059488 1.98877e-19)
(1.07872 0.0576108 4.90224e-17)
(1.08369 0.0581573 3.88179e-19)
(1.08879 0.0585112 0)
(1.09405 0.0586727 4.93586e-17)
(1.09942 0.058644 -4.95542e-17)
(1.10488 0.0584299 2.52587e-17)
(1.11042 0.058036 1.68157e-24)
(1.11599 0.0574701 -3.96855e-19)
(1.1216 0.0567492 3.97644e-19)
(1.12713 0.0559219 0)
(1.07733 0.0539398 -3.85296e-19)
(1.08217 0.0544591 3.87674e-19)
(1.08714 0.0547988 0)
(1.09225 0.054959 -5.01226e-17)
(1.09748 0.0549422 7.86569e-19)
(1.1028 0.0547529 -5.13238e-17)
(1.10818 0.0543966 -2.53507e-17)
(1.1136 0.0538808 -2.58176e-17)
(1.11905 0.0532215 1.99028e-19)
(1.12444 0.0524635 1.99337e-19)
(1.07601 0.0503881 -4.96126e-17)
(1.08072 0.0508809 4.99448e-17)
(1.08557 0.0512063 0)
(1.09056 0.0513643 5.08861e-17)
(1.09566 0.0513578 -7.86573e-19)
(1.10084 0.0511912 2.52755e-17)
(1.10608 0.0508697 0)
(1.11136 0.0504005 2.50444e-17)
(1.11667 0.0497984 5.97694e-19)
(1.12191 0.0491052 -1.99568e-19)
(1.07475 0.0469476 4.87545e-17)
(1.07936 0.0474141 3.86627e-19)
(1.0841 0.0477249 7.78132e-19)
(1.08897 0.04788 -7.82562e-19)
(1.09394 0.0478823 0)
(1.099 0.0477363 2.52839e-17)
(1.10411 0.0474469 -2.61752e-17)
(1.10926 0.0470209 2.58615e-17)
(1.11443 0.0464723 1.99439e-19)
(1.11955 0.0458395 1.29869e-17)
(1.07357 0.0436104 -4.90488e-17)
(1.07808 0.0440508 -4.9429e-17)
(1.08271 0.0443464 0)
(1.08747 0.0444977 0)
(1.09234 0.0445075 0)
(1.09728 0.0443801 -5.05845e-17)
(1.10227 0.0441203 7.93674e-19)
(1.1073 0.0437346 -2.66799e-17)
(1.11235 0.0432358 3.99287e-19)
(1.11735 0.0426596 -1.2802e-17)
(1.07247 0.0403688 -3.82454e-19)
(1.07688 0.040783 3.85664e-19)
(1.08142 0.0410631 -7.76856e-19)
(1.08608 0.0412097 7.81954e-19)
(1.09084 0.0412255 7.86559e-19)
(1.09568 0.0411149 -7.90645e-19)
(1.10056 0.0408825 2.46192e-17)
(1.10548 0.0405341 3.9855e-19)
(1.11042 0.040082 3.99699e-19)
(1.11531 0.0395589 0)
(1.07144 0.0372154 4.84888e-17)
(1.07577 0.0376032 3.85163e-19)
(1.08022 0.0378673 2.48391e-17)
(1.08479 0.0380083 7.81645e-19)
(1.08946 0.0380289 -4.91638e-24)
(1.09419 0.0379334 -7.90907e-19)
(1.09898 0.0377261 0)
(1.1038 0.0374127 0)
(1.10863 0.0370043 1.28036e-17)
(1.11342 0.0365308 0)
(1.07048 0.0341432 3.81107e-19)
(1.07473 0.0345044 -3.84664e-19)
(1.07911 0.0347519 -2.55943e-17)
(1.0836 0.0348863 4.72568e-24)
(1.08818 0.0349105 7.86556e-19)
(1.09283 0.0348286 2.53174e-17)
(1.09753 0.0346445 2.54447e-17)
(1.10225 0.0343636 -3.99225e-19)
(1.10699 0.0339961 -1.24163e-17)
(1.11168 0.0335695 0)
(1.0696 0.0311453 -3.80416e-19)
(1.07379 0.0314795 3.84166e-19)
(1.07809 0.0317098 -2.47983e-17)
(1.08251 0.0318368 0)
(1.08701 0.0318635 0)
(1.09158 0.0317936 0)
(1.09619 0.0316309 -2.54604e-17)
(1.10083 0.0313804 -1.31857e-17)
(1.10548 0.0310515 4.00942e-19)
(1.11009 0.030669 0)
(1.0688 0.028215 -3.79727e-19)
(1.07292 0.0285219 3.83668e-19)
(1.07716 0.0287344 2.40036e-17)
(1.08151 0.0288532 4.55296e-24)
(1.08594 0.0288813 7.86546e-19)
(1.09044 0.0288221 0)
(1.09498 0.0286792 7.96127e-19)
(1.09954 0.0284572 1.15973e-17)
(1.10411 0.0281646 -1.2442e-17)
(1.10864 0.0278238 0)
(1.06807 0.0253459 0)
(1.07214 0.0256251 2.45229e-17)
(1.07632 0.0258191 2.47576e-17)
(1.08061 0.0259291 -7.80424e-19)
(1.08498 0.0259575 7.8654e-19)
(1.08941 0.0259078 0)
(1.09388 0.0257833 1.35426e-17)
(1.09837 0.0255881 -1.20075e-18)
(1.10287 0.0253298 1.30576e-17)
(1.10733 0.0250285 2.01434e-19)
(1.06742 0.0225317 -3.78354e-19)
(1.07144 0.0227827 -2.41085e-17)
(1.07557 0.0229578 -2.39642e-17)
(1.0798 0.0230581 -4.41426e-24)
(1.08412 0.0230861 -7.86534e-19)
(1.08849 0.0230448 0)
(1.0929 0.0229373 -1.35509e-17)
(1.09733 0.0227673 4.00595e-19)
(1.10176 0.0225416 6.03286e-19)
(1.10617 0.0222778 -2.0167e-19)
(1.06684 0.0197662 3.77671e-19)
(1.07082 0.0199886 -3.82181e-19)
(1.07491 0.0201443 0)
(1.07909 0.0202344 0)
(1.08335 0.0202611 0)
(1.08767 0.0202273 -1.26796e-17)
(1.09203 0.0201357 -1.27617e-17)
(1.09641 0.0199895 -4.00932e-19)
(1.10079 0.0197946 2.01306e-19)
(1.10513 0.0195667 2.01906e-19)
(1.06634 0.0170437 -3.76989e-19)
(1.07028 0.017237 3.81687e-19)
(1.07433 0.0173727 1.31201e-17)
(1.07847 0.017452 -1.32516e-17)
(1.08269 0.0174768 0)
(1.08697 0.0174496 2.53675e-17)
(1.09128 0.0173728 1.27696e-17)
(1.09561 0.0172492 6.01915e-18)
(1.09993 0.0170839 -6.24693e-18)
(1.10423 0.0168902 2.02143e-19)
(1.06591 0.0143581 -1.24182e-17)
(1.06982 0.0145219 1.25794e-17)
(1.07384 0.0146373 -1.23382e-17)
(1.07795 0.0147053 2.41552e-17)
(1.08213 0.0147276 7.86514e-19)
(1.08637 0.0147063 -2.53759e-17)
(1.09064 0.0146434 6.38873e-18)
(1.09492 0.0145413 -6.82754e-18)
(1.09921 0.0144043 6.85861e-18)
(1.10346 0.0142434 0)
(1.06555 0.0117038 1.23959e-17)
(1.06944 0.0118378 -3.80705e-19)
(1.07343 0.0119325 -7.70499e-19)
(1.07751 0.0119887 -1.16834e-17)
(1.08167 0.012008 0)
(1.08587 0.011992 1.26921e-17)
(1.09011 0.0119422 -7.19176e-18)
(1.09436 0.0118607 -5.22553e-18)
(1.0986 0.0117508 -6.05803e-19)
(1.10283 0.0116215 2.02618e-19)
(1.06527 0.00907504 -1.19986e-17)
(1.06914 0.00917898 -2.04193e-24)
(1.07311 0.00925275 7.69866e-19)
(1.07717 0.00929698 -1.55717e-18)
(1.0813 0.0093128 1.57299e-18)
(1.08547 0.00930145 -7.14165e-18)
(1.08968 0.00926413 5.59705e-18)
(1.0939 0.00920225 3.62078e-18)
(1.09812 0.00911847 3.84075e-18)
(1.10231 0.00901967 -2.02856e-19)
(1.06506 0.00646627 1.16028e-17)
(1.06891 0.00653989 -1.17713e-17)
(1.07287 0.00659247 0)
(1.07691 0.00662437 0)
(1.08102 0.00663632 7.86485e-19)
(1.08518 0.00662911 5.55643e-18)
(1.08937 0.00660356 -6.40058e-18)
(1.09357 0.00656063 2.81857e-18)
(1.09776 0.00650217 -3.03534e-18)
(1.10193 0.006433 2.03095e-19)
(1.06492 0.00387178 3.7361e-19)
(1.06877 0.00391474 -3.79232e-19)
(1.07271 0.00394574 3.07441e-18)
(1.07674 0.00396488 -7.7797e-19)
(1.08084 0.00397244 3.14591e-18)
(1.08498 0.00396886 -2.38211e-18)
(1.08916 0.00395454 0)
(1.09334 0.00393001 -4.02998e-19)
(1.09752 0.00389633 4.05136e-19)
(1.10168 0.00385627 -8.13335e-19)
(1.06485 0.00128766 -3.73968e-19)
(1.06869 0.00130082 3.79822e-19)
(1.07263 0.00131052 -3.8511e-18)
(1.07666 0.00131669 7.80003e-19)
(1.08075 0.00131936 -1.57778e-18)
(1.08488 0.00131864 1.59358e-18)
(1.08905 0.00131459 0)
(1.09323 0.00130734 -4.04652e-19)
(1.0974 0.0012972 2.03446e-19)
(1.10155 0.00128502 1.02124e-18)
(1.47656 0.0248012 0)
(1.06416 0.0122045 0)
(0.982694 0.0197811 0)
(1.01836 0.0344483 0)
(1.02778 0.0435295 0)
(1.02394 0.0512408 0)
(1.02157 0.0600204 0)
(1.02048 0.0694998 0)
(1.01925 0.0794493 0)
(1.01787 0.0900243 0)
(1.01655 0.101383 0)
(1.0154 0.113634 0)
(1.01453 0.126883 0)
(1.01408 0.141242 0)
(1.01421 0.156816 0)
(1.01515 0.173689 0)
(1.01714 0.191897 0)
(1.02056 0.211369 0)
(1.02589 0.231766 0)
(1.03287 0.251775 0)
(1.482 0.0172707 0)
(1.05556 0.0151214 0)
(0.984007 0.0225698 0)
(1.02132 0.0347354 0)
(1.0287 0.0437718 0)
(1.02483 0.0519494 0)
(1.02318 0.060863 0)
(1.02262 0.0703447 0)
(1.02188 0.080276 0)
(1.02109 0.0907844 0)
(1.02045 0.101999 0)
(1.02005 0.114012 0)
(1.02002 0.126914 0)
(1.02048 0.140793 0)
(1.02162 0.155723 0)
(1.02364 0.171754 0)
(1.0268 0.188873 0)
(1.03146 0.206916 0)
(1.03801 0.225327 0)
(1.04564 0.24255 0)
(1.48603 0.0119147 0)
(1.05142 0.0174252 0)
(0.983507 0.0247479 0)
(1.02222 0.0347586 0)
(1.02915 0.0437467 0)
(1.02551 0.0523319 0)
(1.02445 0.0613303 0)
(1.0244 0.0707677 0)
(1.02417 0.0806338 0)
(1.02396 0.0910261 0)
(1.02395 0.102043 0)
(1.02425 0.113765 0)
(1.02497 0.126262 0)
(1.02623 0.139601 0)
(1.02823 0.153828 0)
(1.03114 0.168961 0)
(1.03521 0.184945 0)
(1.04072 0.201574 0)
(1.048 0.218246 0)
(1.05634 0.233516 0)
(1.48962 0.00955883 0)
(1.04952 0.0178194 0)
(0.982653 0.0253863 0)
(1.02242 0.0345975 0)
(1.02942 0.0436023 0)
(1.02605 0.0523991 0)
(1.02546 0.0614391 0)
(1.02589 0.070831 0)
(1.02616 0.0806125 0)
(1.02648 0.0908614 0)
(1.02707 0.101657 0)
(1.02801 0.113066 0)
(1.02939 0.125145 0)
(1.03137 0.137939 0)
(1.03408 0.151476 0)
(1.03773 0.165746 0)
(1.0425 0.180676 0)
(1.04865 0.196047 0)
(1.05641 0.211292 0)
(1.06524 0.225039 0)
(1.49304 0.00851496 0)
(1.04868 0.0176118 0)
(0.981983 0.0254041 0)
(1.0225 0.034311 0)
(1.02966 0.0432818 0)
(1.02651 0.0521503 0)
(1.0263 0.0611879 0)
(1.02716 0.0705135 0)
(1.02788 0.0801796 0)
(1.02871 0.0902517 0)
(1.02983 0.100795 0)
(1.03133 0.111865 0)
(1.0333 0.123503 0)
(1.03588 0.135742 0)
(1.03921 0.148589 0)
(1.04346 0.162021 0)
(1.04878 0.175951 0)
(1.05538 0.190165 0)
(1.06347 0.204133 0)
(1.07261 0.216559 0)
(1.49637 0.0079972 0)
(1.04842 0.0173247 0)
(0.981545 0.0252038 0)