/*--------------------------------*- C++ -*----------------------------------*\
  =========                 |
  \\      /  F ield         | OpenFOAM: The Open Source CFD Toolbox
   \\    /   O peration     | Website:  https://openfoam.org
    \\  /    A nd           | Version:  6
     \\/     M anipulation  |
\*---------------------------------------------------------------------------*/
FoamFile
{
    version     2.0;
    format      ascii;
    class       surfaceScalarField;
    location    "0.4";
    object      phi;
}
// * * * * * * * * * * * * * * * * * * * * * * * * * * * * * * * * * * * * * //

dimensions      [0 3 -1 0 0 0 0];

internalField   nonuniform List<scalar> 
11030
(
0.000113212
-1.62362e-07
0.000113338
-1.25399e-07
0.000113379
-4.12193e-08
0.000113331
4.739e-08
0.000113215
1.16424e-07
0.000113027
1.88392e-07
0.000112756
2.7054e-07
0.000112396
3.60215e-07
0.000111939
4.56883e-07
0.000111377
5.62156e-07
0.000110699
6.77857e-07
0.000109893
8.0579e-07
0.000108945
9.48025e-07
0.000107838
1.10697e-06
0.000106553
1.28525e-06
0.000105067
1.48546e-06
0.000103358
1.70943e-06
0.000101401
1.9566e-06
9.91803e-05
2.22106e-06
2.48218e-06
9.66981e-05
0.00011324
-3.50682e-07
0.00011329
-1.75186e-07
0.000113259
-1.06117e-08
0.00011317
1.36699e-07
0.000113012
2.74775e-07
0.000112775
4.24962e-07
0.000112455
5.91178e-07
0.000112044
7.71098e-07
0.000111535
9.65649e-07
0.000110919
1.1779e-06
0.000110186
1.4112e-06
0.000109322
1.66912e-06
0.000108315
1.95583e-06
0.000107145
2.27612e-06
0.000105796
2.63518e-06
0.000104243
3.03807e-06
0.000102464
3.48828e-06
0.000100436
3.98461e-06
9.8142e-05
4.51521e-06
5.04332e-06
9.55808e-05
0.000113171
-4.68357e-07
0.00011319
-1.94589e-07
0.000113122
5.69724e-08
0.000112983
2.7613e-07
0.000112772
4.85277e-07
0.000112484
7.13703e-07
0.00011211
9.64914e-07
0.000111645
1.23615e-06
0.000111081
1.52942e-06
0.00011041
1.84932e-06
0.00010962
2.20071e-06
0.0001087
2.5889e-06
0.000107636
3.02006e-06
0.000106411
3.50123e-06
0.000105006
4.04007e-06
0.0001034
4.64399e-06
0.00010157
5.31812e-06
9.94943e-05
6.06079e-06
9.71546e-05
6.85491e-06
7.65059e-06
9.45473e-05
0.000113115
-5.27714e-07
0.000113079
-1.58423e-07
0.00011296
1.76033e-07
0.000112768
4.68487e-07
0.000112503
7.50285e-07
0.000112159
1.05768e-06
0.000111729
1.39443e-06
0.000111208
1.75731e-06
0.000110588
2.14927e-06
0.000109861
2.57629e-06
0.000109017
3.04471e-06
0.000108045
3.56143e-06
0.00010693
4.13444e-06
0.000105659
4.77289e-06
0.000104212
5.48664e-06
0.000102571
6.28522e-06
0.000100714
7.17531e-06
9.86195e-05
8.15485e-06
9.62724e-05
9.202e-06
1.02564e-05
9.36667e-05
0.000113056
-5.22601e-07
0.000112956
-5.90994e-08
0.000112779
3.53608e-07
0.000112529
7.18365e-07
0.000112206
1.07318e-06
0.000111804
1.45985e-06
0.000111316
1.88212e-06
0.000110737
2.33616e-06
0.000110061
2.8257e-06
0.000109279
3.358e-06
0.000108383
3.94067e-06
0.000107363
4.582e-06
0.000106205
5.2916e-06
0.000104898
6.08037e-06
0.000103425
6.96003e-06
0.000101768
7.94187e-06
9.99094e-05
9.03383e-06
9.78308e-05
1.02334e-05
9.55185e-05
1.15144e-05
1.28086e-05
9.29663e-05
0.000112989
-4.44732e-07
0.000112821
1.09369e-07
0.000112581
5.93455e-07
0.00011227
1.02911e-06
0.000111886
1.45736e-06
0.000111423
1.92341e-06
0.000110874
2.43067e-06
0.000110236
2.97461e-06
0.000109502
3.55957e-06
0.000108666
4.1939e-06
0.00010772
4.88629e-06
0.000106656
5.64619e-06
0.000105463
6.48446e-06
0.00010413
7.41335e-06
0.000102644
8.44594e-06
0.000100991
9.59482e-06
9.91563e-05
1.08688e-05
9.7125e-05
1.22647e-05
9.48866e-05
1.37528e-05
1.52599e-05
9.24352e-05
0.000112912
-2.82026e-07
0.00011267
3.51282e-07
0.000112369
8.94607e-07
0.000111996
1.40237e-06
0.000111546
1.9067e-06
0.000111017
2.45239e-06
0.000110404
3.04359e-06
0.000109704
3.67538e-06
0.000108911
4.3525e-06
0.00010802
5.08423e-06
0.000107027
5.88015e-06
0.000105922
6.75056e-06
0.000104699
7.70718e-06
0.00010335
8.7631e-06
0.000101863
9.93217e-06
0.000100231
1.12276e-05
9.84407e-05
1.26587e-05
9.64835e-05
1.4222e-05
9.43515e-05
1.58848e-05
1.75737e-05
9.20376e-05
0.000112813
-1.19612e-08
0.000112498
6.66525e-07
0.000112146
1.24672e-06
0.000111709
1.83879e-06
0.000111189
2.42724e-06
0.000110589
3.05242e-06
0.000109907
3.72546e-06
0.00010914
4.44214e-06
0.000108285
5.20705e-06
0.000107339
6.03024e-06
0.000106298
6.92204e-06
0.000105155
7.89325e-06
0.000103906
8.95596e-06
0.000102546
1.01235e-05
0.000101068
1.14097e-05
9.94679e-05
1.28279e-05
9.77394e-05
1.43872e-05
9.58771e-05
1.60843e-05
9.38759e-05
1.7886e-05
1.9727e-05
9.17226e-05
0.00011265
4.30599e-07
0.000112296
1.0201e-06
0.000111921
1.6218e-06
0.000111414
2.34588e-06
0.000110811
3.03034e-06
0.000110133
3.73068e-06
0.000109376
4.48189e-06
0.000108539
5.2798e-06
0.000107618
6.12736e-06
0.000106613
7.03531e-06
0.000105521
8.01463e-06
0.000104338
9.07621e-06
0.000103062
1.02319e-05
0.000101691
1.14944e-05
0.000100224
1.28769e-05
9.86604e-05
1.43913e-05
9.70012e-05
1.60464e-05
9.52459e-05
1.78396e-05
9.33935e-05
1.97384e-05
2.16815e-05
9.14389e-05
0.000112385
1.15484e-06
0.000112129
1.27639e-06
0.000111723
2.02805e-06
0.000111112
2.95688e-06
0.000110415
3.72736e-06
0.000109653
4.49253e-06
0.000108817
5.31748e-06
0.000107905
6.19192e-06
0.000106916
7.11631e-06
0.000105849
8.10218e-06
0.000104703
9.16089e-06
0.000103476
1.03029e-05
0.000102169
1.15392e-05
0.000100782
1.28811e-05
9.93193e-05
1.43396e-05
9.77866e-05
1.59241e-05
9.61935e-05
1.76396e-05
9.45498e-05
1.94833e-05
9.28472e-05
2.1441e-05
9.10815e-05
2.34473e-05
8.64969e-05
1.02012e-05
7.61562e-05
1.03407e-05
6.56629e-05
1.04933e-05
5.50137e-05
1.06492e-05
4.4226e-05
1.07876e-05
3.33765e-05
1.08495e-05
2.26809e-05
1.06957e-05
1.26484e-05
1.00325e-05
4.33722e-06
8.31115e-06
4.33722e-06
8.54771e-05
2.03049e-05
7.52261e-05
2.05917e-05
6.48235e-05
2.0896e-05
5.42689e-05
2.12038e-05
4.3584e-05
2.14726e-05
3.28503e-05
2.15832e-05
2.22859e-05
2.12601e-05
1.23978e-05
1.99207e-05
4.27791e-06
1.6431e-05
8.61513e-06
8.45463e-05
3.03059e-05
7.43902e-05
3.07477e-05
6.40806e-05
3.12056e-05
5.36197e-05
3.16647e-05
4.30316e-05
3.20606e-05
3.24019e-05
3.22129e-05
2.19533e-05
3.17087e-05
1.21961e-05
2.96779e-05
4.19706e-06
2.44301e-05
1.28122e-05
8.37573e-05
4.02153e-05
7.36871e-05
4.08179e-05
6.34616e-05
4.14311e-05
5.30839e-05
4.20424e-05
4.25793e-05
4.25653e-05
3.20359e-05
4.27562e-05
2.16807e-05
4.20638e-05
1.2027e-05
3.93316e-05
4.1305e-06
3.23266e-05
1.69427e-05
8.3133e-05
5.00485e-05
7.3133e-05
5.08179e-05
6.29763e-05
5.15879e-05
5.26652e-05
5.23535e-05
4.22247e-05
5.30058e-05
3.17453e-05
5.32356e-05
2.14589e-05
5.23502e-05
1.18842e-05
4.89064e-05
4.07204e-06
4.01387e-05
2.10147e-05
8.26613e-05
5.98223e-05
7.27142e-05
6.07651e-05
6.26086e-05
6.16934e-05
5.23445e-05
6.26176e-05
4.19463e-05
6.3404e-05
3.15075e-05
6.36743e-05
2.12668e-05
6.2591e-05
1.17516e-05
5.84217e-05
4.01325e-06
4.7877e-05
2.5028e-05
8.23042e-05
6.95558e-05
7.23911e-05
7.06781e-05
6.23182e-05
7.17664e-05
5.20802e-05
7.28556e-05
4.17017e-05
7.37824e-05
3.12817e-05
7.40943e-05
2.10689e-05
7.28038e-05
1.16035e-05
6.7887e-05
3.94121e-06
5.55392e-05
2.89692e-05
8.20007e-05
7.92778e-05
7.20987e-05
8.05801e-05
6.20381e-05
8.1827e-05
5.18042e-05
8.30896e-05
4.14248e-05
8.41618e-05
3.10075e-05
8.45117e-05
2.08155e-05
8.29957e-05
1.14056e-05
7.72969e-05
3.83896e-06
6.31059e-05
3.28082e-05
8.16497e-05
8.9067e-05
7.17282e-05
9.05016e-05
6.16568e-05
9.18983e-05
5.14076e-05
9.33387e-05
4.10175e-05
9.45519e-05
3.06036e-05
9.49256e-05
2.04452e-05
9.31541e-05
1.1115e-05
8.66272e-05
3.68245e-06
7.05384e-05
3.64906e-05
8.10133e-05
9.91353e-05
7.10784e-05
0.000100436
6.09783e-05
0.000101998
5.07184e-05
0.000103599
4.03406e-05
0.00010493
2.9965e-05
0.000105301
1.9881e-05
0.000103238
1.06703e-05
9.58379e-05
3.42209e-06
7.77867e-05
3.99127e-05
3.08976e-05
0.000104474
-3.62366e-05
2.55885e-05
0.000105746
2.03684e-05
0.000107219
1.52869e-05
0.00010868
1.04917e-05
0.000109725
6.23574e-06
0.000109557
2.86244e-06
0.000106611
7.15791e-07
9.79846e-05
-8.17134e-08
7.85842e-05
3.9831e-05
2.50852e-05
0.000109286
-2.98966e-05
2.02733e-05
0.000110558
1.55606e-05
0.000111931
1.10567e-05
0.000113184
6.92539e-06
0.000113856
3.4171e-06
0.000113065
8.46044e-07
0.000109182
-5.02293e-07
9.93329e-05
-5.89421e-07
7.86713e-05
3.92416e-05
1.93198e-05
0.0001136
-2.36338e-05
1.50179e-05
0.000114859
1.08481e-05
0.000116101
6.94555e-06
0.000117087
3.49471e-06
0.000117307
7.45116e-07
0.000115815
-1.01784e-06
0.000110945
-1.57244e-06
9.98875e-05
-9.82319e-07
7.80812e-05
3.82593e-05
1.36559e-05
0.000117419
-1.74753e-05
9.88154e-06
0.000118634
6.27687e-06
0.000119706
2.9963e-06
0.000120367
2.39312e-07
0.000120064
-1.74791e-06
0.000117802
-2.71165e-06
0.000111909
-2.50039e-06
9.96763e-05
-1.29339e-06
7.68742e-05
3.69659e-05
8.13263e-06
0.000120742
-1.14555e-05
4.89565e-06
0.000121871
1.87355e-06
0.000122728
-7.66896e-07
0.000123008
-2.81842e-06
0.000122115
-4.04437e-06
0.000119028
-4.22864e-06
0.000112093
-3.29518e-06
9.87428e-05
-1.53832e-06
7.51173e-05
3.54275e-05
2.77701e-06
0.000123566
-5.6013e-06
8.43362e-08
0.000124563
-2.34222e-06
0.000125154
-4.32865e-06
0.000124994
-5.66716e-06
0.000123454
-6.13797e-06
0.000119499
-5.56942e-06
0.000111525
-3.96454e-06
9.71379e-05
-1.72581e-06
7.28786e-05
3.37017e-05
-2.39321e-06
0.000125889
7.04229e-08
-4.53539e-06
0.000126706
-6.35608e-06
0.000126975
-7.67838e-06
0.000126316
-8.30073e-06
0.000124076
-8.02768e-06
0.000119226
-6.73855e-06
0.000110236
-4.51723e-06
9.49166e-05
-1.86405e-06
7.02254e-05
3.18377e-05
-7.36911e-06
0.000127706
5.55179e-06
-8.95377e-06
0.00012829
-1.0159e-05
0.00012818
-1.08092e-05
0.000126966
-1.07154e-05
0.000123983
-9.71411e-06
0.000118225
-7.74147e-06
0.000108263
-4.962e-06
9.21371e-05
-1.96036e-06
6.72238e-05
2.98773e-05
-1.21474e-05
0.000129013
1.08406e-05
-1.31648e-05
0.000129308
-1.37425e-05
0.000128758
-1.37113e-05
0.000126935
-1.29023e-05
0.000123174
-1.11922e-05
0.000116515
-8.57984e-06
0.000105651
-5.30681e-06
8.88641e-05
-2.02249e-06
6.39394e-05
2.78548e-05
-1.67229e-05
1.59459e-05
0.00012979
-1.71478e-05
0.000129733
-1.70735e-05
0.000128684
-1.63455e-05
0.000126207
-1.4825e-05
0.000121653
-1.24379e-05
0.000114127
-9.24834e-06
0.000102461
-5.56333e-06
8.51791e-05
-2.06737e-06
6.04435e-05
2.57875e-05
8.00681e-05
-3.68799e-05
-7.94249e-05
8.09273e-05
-3.07558e-05
8.19753e-05
-2.46817e-05
8.31573e-05
-1.86573e-05
8.44316e-05
-1.27297e-05
8.57503e-05
-6.92006e-06
8.70632e-05
-1.24246e-06
8.83208e-05
4.29417e-06
8.94771e-05
9.68435e-06
1.49431e-05
9.04799e-05
8.07366e-05
-3.73454e-05
-8.02711e-05
8.13966e-05
-3.14158e-05
8.22455e-05
-2.55306e-05
8.32404e-05
-1.96522e-05
8.43433e-05
-1.38326e-05
8.55135e-05
-8.09022e-06
8.6708e-05
-2.43696e-06
8.78845e-05
3.11764e-06
8.90027e-05
8.56619e-06
1.39265e-05
9.00192e-05
8.13107e-05
-3.76126e-05
-8.10434e-05
8.17878e-05
-3.1893e-05
8.24504e-05
-2.61932e-05
8.32663e-05
-2.04681e-05
8.42023e-05
-1.47686e-05
8.5224e-05
-9.11196e-06
8.62958e-05
-3.50876e-06
8.73823e-05
2.03115e-06
8.84492e-05
7.49927e-06
1.29138e-05
8.9462e-05
8.18109e-05
-3.7734e-05
-8.16895e-05
8.21282e-05
-3.22103e-05
8.26217e-05
-2.66868e-05
8.32691e-05
-2.11154e-05
8.4044e-05
-1.55436e-05
8.49191e-05
-9.98699e-06
8.58655e-05
-4.45518e-06
8.68546e-05
1.04203e-06
8.78581e-05
6.49579e-06
1.19234e-05
8.88485e-05
8.22288e-05
-3.77388e-05
-8.22241e-05
8.2411e-05
-3.23924e-05
8.27563e-05
-2.7032e-05
8.32513e-05
-2.16105e-05
8.3877e-05
-1.61693e-05
8.46125e-05
-1.07225e-05
8.54358e-05
-5.27853e-06
8.63246e-05
1.53294e-07
8.72559e-05
5.56442e-06
1.0971e-05
8.82084e-05
8.25636e-05
-3.76408e-05
-8.26616e-05
8.26286e-05
-3.24575e-05
8.28454e-05
-2.72488e-05
8.32064e-05
-2.19715e-05
8.36984e-05
-1.66613e-05
8.43062e-05
-1.13304e-05
8.50137e-05
-5.98602e-06
8.58039e-05
-6.36865e-07
8.66591e-05
4.70922e-06
1.00673e-05
8.75628e-05
8.28215e-05
-3.74498e-05
-8.30125e-05
8.27833e-05
-3.24193e-05
8.28882e-05
-2.73537e-05
8.31323e-05
-2.22156e-05
8.35065e-05
-1.70355e-05
8.40001e-05
-1.18239e-05
8.46013e-05
-6.58729e-06
8.5298e-05
-1.33349e-06
8.60767e-05
3.93046e-06
9.21875e-06
8.69253e-05
8.3011e-05
-3.71745e-05
-8.32864e-05
8.2881e-05
-3.22893e-05
8.2888e-05
-2.73607e-05
8.30301e-05
-2.23577e-05
8.33011e-05
-1.73064e-05
8.36934e-05
-1.22162e-05
8.41988e-05
-7.09276e-06
8.48087e-05
-1.94338e-06
8.55134e-05
3.22576e-06
8.42807e-06
8.63041e-05
8.31406e-05
-3.68225e-05
-8.34925e-05
8.29285e-05
-3.20773e-05
8.28493e-05
-2.72814e-05
8.29021e-05
-2.24105e-05
8.30827e-05
-1.74869e-05
8.33856e-05
-1.25192e-05
8.38055e-05
-7.51262e-06
8.43362e-05
-2.47404e-06
8.49709e-05
2.59105e-06
7.69533e-06
8.57036e-05
8.32181e-05
-3.6401e-05
-8.36396e-05
8.29326e-05
-3.17917e-05
8.2777e-05
-2.71259e-05
8.27514e-05
-2.23849e-05
8.28525e-05
-1.75881e-05
8.30769e-05
-1.27435e-05
8.34206e-05
-7.85632e-06
8.38796e-05
-2.93303e-06
8.44492e-05
2.02139e-06
7.01883e-06
8.51257e-05
8.32511e-05
-3.59167e-05
-8.37354e-05
8.28997e-05
-3.14403e-05
8.26764e-05
-2.69025e-05
8.25813e-05
-2.22899e-05
8.26126e-05
-1.76193e-05
8.27674e-05
-1.28983e-05
8.30435e-05
-8.13235e-06
8.34379e-05
-3.32749e-06
8.39478e-05
1.51152e-06
6.39577e-06
8.45709e-05
8.32462e-05
-3.53757e-05
-8.37872e-05
8.28357e-05
-3.10299e-05
8.2552e-05
-2.66188e-05
8.23955e-05
-2.21334e-05
8.23648e-05
-1.75886e-05
8.24581e-05
-1.29917e-05
8.26739e-05
-8.34814e-06
8.30104e-05
-3.66398e-06
8.34657e-05
1.05627e-06
5.82276e-06
8.40387e-05
8.32094e-05
-3.47837e-05
-8.38014e-05
8.2746e-05
-3.05665e-05
8.24083e-05
-2.6281e-05
8.2197e-05
-2.19221e-05
8.21113e-05
-1.75029e-05
8.215e-05
-1.30304e-05
8.2312e-05
-8.51019e-06
8.25964e-05
-3.94835e-06
8.3002e-05
6.50717e-07
5.29622e-06
8.35285e-05
8.3146e-05
-3.41458e-05
-8.37839e-05
8.26352e-05
-3.00556e-05
8.22492e-05
-2.58951e-05
8.19891e-05
-2.1662e-05
8.18543e-05
-1.73681e-05
8.18441e-05
-1.30202e-05
8.19581e-05
-8.62413e-06
8.21955e-05
-4.18579e-06
8.25558e-05
2.90371e-07
4.8126e-06
8.30395e-05
8.30608e-05
-3.34667e-05
-8.37399e-05
8.25074e-05
-2.95022e-05
8.20782e-05
-2.54659e-05
8.17743e-05
-2.13581e-05
8.15956e-05
-1.71894e-05
8.15417e-05
-1.29663e-05
8.16124e-05
-8.69483e-06
8.18075e-05
-4.38086e-06
8.21267e-05
-2.88519e-08
4.3685e-06
8.25708e-05
8.29579e-05
-3.27507e-05
-8.36739e-05
8.23663e-05
-2.89106e-05
8.18984e-05
-2.4998e-05
8.15552e-05
-2.10149e-05
8.1337e-05
-1.69712e-05
8.12438e-05
-1.28731e-05
8.12755e-05
-8.72654e-06
8.14322e-05
-4.53758e-06
8.17139e-05
-3.10607e-07
3.96074e-06
8.21217e-05
8.28409e-05
-3.20015e-05
-8.35901e-05
8.22151e-05
-2.82847e-05
8.17123e-05
-2.44952e-05
8.13339e-05
-2.06365e-05
8.10801e-05
-1.67175e-05
8.09514e-05
-1.27443e-05
8.09478e-05
-8.723e-06
8.10697e-05
-4.65947e-06
8.13173e-05
-5.58165e-07
3.58641e-06
8.16916e-05
8.27131e-05
-3.12225e-05
-8.3492e-05
8.20565e-05
-2.76281e-05
8.15224e-05
-2.39611e-05
8.11121e-05
-2.02262e-05
8.08263e-05
-1.64317e-05
8.06654e-05
-1.25835e-05
8.06299e-05
-8.68747e-06
8.07201e-05
-4.74965e-06
8.09364e-05
-7.74448e-07
3.24284e-06
8.12799e-05
8.25771e-05
-3.04169e-05
-8.33828e-05
8.18928e-05
-2.69438e-05
8.13305e-05
-2.33987e-05
8.08915e-05
-1.97872e-05
8.05767e-05
-1.61169e-05
8.03867e-05
-1.23935e-05
8.03221e-05
-8.62285e-06
8.03833e-05
-4.8109e-06
8.0571e-05
-9.6207e-07
2.92762e-06
8.08862e-05
8.24354e-05
-2.95873e-05
-8.32651e-05
8.17262e-05
-2.62346e-05
8.11384e-05
-2.28109e-05
8.06735e-05
-1.93223e-05
8.03324e-05
-1.57757e-05
8.01159e-05
-1.2177e-05
8.00247e-05
-8.5317e-06
8.00595e-05
-4.84569e-06
8.02208e-05
-1.12338e-06
2.63854e-06
8.05099e-05
8.22901e-05
-2.87361e-05
-8.31413e-05
8.15584e-05
-2.5503e-05
8.09476e-05
-2.22001e-05
8.04591e-05
-1.88338e-05
8.00941e-05
-1.54107e-05
7.98535e-05
-1.19364e-05
7.97382e-05
-8.41631e-06
7.97487e-05
-4.85622e-06
7.98858e-05
-1.2605e-06
2.3736e-06
8.01507e-05
8.21428e-05
-2.78654e-05
-8.30135e-05
8.13909e-05
-2.47511e-05
8.07593e-05
-2.15684e-05
8.02494e-05
-1.8324e-05
7.98627e-05
-1.5024e-05
7.96001e-05
-1.16738e-05
7.94625e-05
-8.27876e-06
7.94508e-05
-4.8445e-06
7.95656e-05
-1.37533e-06
2.13095e-06
7.98083e-05
8.19952e-05
-2.69773e-05
-8.28833e-05
8.1225e-05
-2.39809e-05
8.05744e-05
-2.09179e-05
8.00452e-05
-1.77948e-05
7.96386e-05
-1.46175e-05
7.93559e-05
-1.1391e-05
7.9198e-05
-8.12087e-06
7.91658e-05
-4.81231e-06
7.92601e-05
-1.46962e-06
1.90893e-06
7.94821e-05
8.18484e-05
-2.60733e-05
-8.27524e-05
8.10616e-05
-2.31941e-05
8.03939e-05
-2.02502e-05
7.9847e-05
-1.72479e-05
7.94224e-05
-1.41928e-05
7.91213e-05
-1.10899e-05
7.89447e-05
-7.94434e-06
7.88937e-05
-4.76129e-06
7.8969e-05
-1.54495e-06
1.706e-06
7.9172e-05
8.17036e-05
-2.5155e-05
-8.26218e-05
8.09018e-05
-2.23923e-05
8.02185e-05
-1.95669e-05
7.96555e-05
-1.66849e-05
7.92143e-05
-1.37517e-05
7.88963e-05
-1.07719e-05
7.87027e-05
-7.75067e-06
7.86343e-05
-4.69293e-06
7.86921e-05
-1.60277e-06
1.52075e-06
7.88774e-05
8.15616e-05
-2.42238e-05
-8.24928e-05
8.07462e-05
-2.15769e-05
8.00487e-05
-1.88694e-05
7.9471e-05
-1.61072e-05
7.90147e-05
-1.32954e-05
7.86813e-05
-1.04385e-05
7.84719e-05
-7.54124e-06
7.83875e-05
-4.60857e-06
7.84291e-05
-1.64441e-06
1.35187e-06
7.8598e-05
8.14232e-05
-2.32808e-05
-8.23662e-05
8.05954e-05
-2.07491e-05
7.9885e-05
-1.8159e-05
7.92939e-05
-1.55162e-05
7.88238e-05
-1.28253e-05
7.84761e-05
-1.00908e-05
7.82522e-05
-7.31731e-06
7.81531e-05
-4.50946e-06
7.81798e-05
-1.67109e-06
1.19816e-06
7.83335e-05
8.1289e-05
-2.23271e-05
-8.22427e-05
8.045e-05
-1.99101e-05
7.97278e-05
-1.74368e-05
7.91244e-05
-1.49128e-05
7.86416e-05
-1.23425e-05
7.82809e-05
-9.73011e-06
7.80437e-05
-7.08003e-06
7.79309e-05
-4.39674e-06
7.79438e-05
-1.68394e-06
1.05851e-06
7.80834e-05
8.11596e-05
-2.13638e-05
-8.21229e-05
8.03103e-05
-1.90608e-05
7.95773e-05
-1.67038e-05
7.89627e-05
-1.42982e-05
7.84683e-05
-1.18481e-05
7.80956e-05
-9.35742e-06
7.78461e-05
-6.83046e-06
7.77208e-05
-4.27146e-06
7.77208e-05
-1.684e-06
9.31881e-07
7.78475e-05
8.10352e-05
-2.03917e-05
-8.20073e-05
8.01766e-05
-1.82021e-05
7.94338e-05
-1.59611e-05
7.8809e-05
-1.36734e-05
7.83039e-05
-1.1343e-05
7.79202e-05
-8.97372e-06
7.76593e-05
-6.56955e-06
7.75224e-05
-4.13458e-06
7.75106e-05
-1.67223e-06
8.17308e-07
7.76252e-05
8.09163e-05
-1.94116e-05
-8.18964e-05
8.00492e-05
-1.7335e-05
7.92974e-05
-1.52093e-05
7.86632e-05
-1.30391e-05
7.81483e-05
-1.08281e-05
7.77545e-05
-8.57988e-06
7.74832e-05
-6.29822e-06
7.73356e-05
-3.98701e-06
7.73129e-05
-1.64953e-06
7.13897e-07
7.74163e-05
8.0803e-05
-1.84243e-05
-8.17904e-05
7.99282e-05
-1.64601e-05
7.91683e-05
-1.44494e-05
7.85254e-05
-1.23963e-05
7.80016e-05
-1.03043e-05
7.75984e-05
-8.17675e-06
7.73175e-05
-6.01729e-06
7.71601e-05
-3.82957e-06
7.71273e-05
-1.61673e-06
6.20812e-07
7.72204e-05
8.06957e-05
-1.74304e-05
-8.16896e-05
7.98137e-05
-1.55782e-05
7.90464e-05
-1.3682e-05
7.83957e-05
-1.17456e-05
7.78636e-05
-9.77223e-06
7.74519e-05
-7.76506e-06
7.71621e-05
-5.72752e-06
7.69956e-05
-3.66304e-06
7.69535e-05
-1.57461e-06
5.3727e-07
7.7037e-05
8.05943e-05
-1.64305e-05
-8.15942e-05
7.9706e-05
-1.46899e-05
7.89318e-05
-1.29078e-05
7.82739e-05
-1.10877e-05
7.77343e-05
-9.23264e-06
7.73148e-05
-7.34553e-06
7.70169e-05
-5.42962e-06
7.6842e-05
-3.48814e-06
7.67912e-05
-1.52389e-06
4.62538e-07
7.6866e-05
8.04989e-05
-1.54252e-05
-8.15042e-05
7.96048e-05
-1.37958e-05
7.88245e-05
-1.21274e-05
7.816e-05
-1.04233e-05
7.76135e-05
-8.68616e-06
7.71868e-05
-6.91882e-06
7.68815e-05
-5.12426e-06
7.66989e-05
-3.30553e-06
7.66402e-05
-1.46526e-06
3.95929e-07
7.67068e-05
8.04098e-05
-1.4415e-05
-8.142e-05
7.95104e-05
-1.28964e-05
7.87244e-05
-1.13414e-05
7.8054e-05
-9.75289e-06
7.75013e-05
-8.13339e-06
7.7068e-05
-6.48553e-06
7.67558e-05
-4.81207e-06
7.65661e-05
-3.11585e-06
7.65002e-05
-1.39935e-06
3.36796e-07
7.65593e-05
8.03268e-05
-1.34005e-05
-8.13413e-05
7.94227e-05
-1.19923e-05
7.86316e-05
-1.05503e-05
7.79558e-05
-9.07707e-06
7.73973e-05
-7.5749e-06
7.6958e-05
-6.04623e-06
7.66396e-05
-4.49362e-06
7.64434e-05
-2.91969e-06
7.63708e-05
-1.32676e-06
2.8453e-07
7.64231e-05
8.025e-05
-1.2382e-05
-8.12685e-05
7.93417e-05
-1.1084e-05
7.8546e-05
-9.75466e-06
7.78653e-05
-8.39634e-06
7.73016e-05
-7.01121e-06
7.68568e-05
-5.60146e-06
7.65327e-05
-4.16946e-06
7.63306e-05
-2.71761e-06
7.62519e-05
-1.24805e-06
2.38556e-07
7.62978e-05
8.01794e-05
-1.13601e-05
-8.12013e-05
7.92673e-05
-1.01719e-05
7.84675e-05
-8.95486e-06
7.77823e-05
-7.71119e-06
7.72139e-05
-6.44282e-06
7.67642e-05
-5.15174e-06
7.64349e-05
-3.8401e-06
7.62274e-05
-2.51013e-06
7.61431e-05
-1.16377e-06
1.98329e-07
7.61833e-05
8.0115e-05
-1.03352e-05
-8.114e-05
7.91995e-05
-9.25636e-06
7.8396e-05
-8.15139e-06
7.77069e-05
-7.02208e-06
7.71343e-05
-5.87019e-06
7.66801e-05
-4.69753e-06
7.6346e-05
-3.50604e-06
7.61336e-05
-2.29774e-06
7.60443e-05
-1.07441e-06
1.6333e-07
7.60793e-05
8.00567e-05
-9.30757e-06
-8.10843e-05
7.91382e-05
-8.33791e-06
7.83315e-05
-7.34467e-06
7.76389e-05
-6.32943e-06
7.70625e-05
-5.29377e-06
7.66042e-05
-4.23929e-06
7.62659e-05
-3.16774e-06
7.60491e-05
-2.08092e-06
7.59551e-05
-9.80456e-07
1.33069e-07
7.59854e-05
8.00045e-05
-8.27771e-06
-8.10344e-05
7.90835e-05
-7.41691e-06
7.82739e-05
-6.53511e-06
7.75782e-05
-5.63367e-06
7.69984e-05
-4.71397e-06
7.65365e-05
-3.77745e-06
7.61944e-05
-2.82563e-06
7.59736e-05
-1.86012e-06
7.58755e-05
-8.82374e-07
1.07072e-07
7.59015e-05
7.99584e-05
-7.24595e-06
-8.09901e-05
7.90352e-05
-6.49373e-06
7.82232e-05
-5.72309e-06
7.75247e-05
-4.93519e-06
7.69419e-05
-4.13122e-06
7.64769e-05
-3.31242e-06
7.61314e-05
-2.48014e-06
7.5907e-05
-1.63577e-06
7.58053e-05
-7.80601e-07
8.48851e-08
7.58275e-05
7.99182e-05
-6.21266e-06
-8.09515e-05
7.89932e-05
-5.56874e-06
7.81791e-05
-4.90899e-06
7.74783e-05
-4.23437e-06
7.6893e-05
-3.54588e-06
7.64252e-05
-2.8446e-06
7.60767e-05
-2.13167e-06
7.58492e-05
-1.40829e-06
7.57442e-05
-6.75565e-07
6.60664e-08
7.5763e-05
7.9884e-05
-5.1782e-06
-8.09185e-05
7.89576e-05
-4.64231e-06
7.81418e-05
-4.09317e-06
7.7439e-05
-3.53157e-06
7.68514e-05
-2.95834e-06
7.63812e-05
-2.37437e-06
7.60302e-05
-1.78061e-06
7.57999e-05
-1.17808e-06
7.56921e-05
-5.67684e-07
5.01886e-08
7.57079e-05
7.98558e-05
-4.14291e-06
-8.08911e-05
7.89282e-05
-3.71477e-06
7.8111e-05
-3.27598e-06
7.74066e-05
-2.82715e-06
7.68172e-05
-2.36895e-06
7.6345e-05
-1.9021e-06
7.59917e-05
-1.42735e-06
7.57592e-05
-9.45531e-07
7.56488e-05
-4.57365e-07
3.68266e-08
7.56622e-05
7.98334e-05
-3.10713e-06
-8.08692e-05
7.89051e-05
-2.78646e-06
7.80868e-05
-2.45774e-06
7.73811e-05
-2.12145e-06
7.67903e-05
-1.77807e-06
7.63163e-05
-1.42815e-06
7.59612e-05
-1.07227e-06
7.57267e-05
-7.11044e-07
7.56144e-05
-3.45018e-07
2.5558e-08
7.56257e-05
7.98168e-05
-2.07119e-06
-8.08528e-05
7.88881e-05
-1.8577e-06
7.80691e-05
-1.6388e-06
7.73625e-05
-1.4148e-06
7.67704e-05
-1.18604e-06
7.62952e-05
-9.52899e-07
7.59387e-05
-7.15753e-07
7.57026e-05
-4.75015e-07
7.55887e-05
-2.31054e-07
1.59556e-08
7.55983e-05
7.9806e-05
-1.03539e-06
-8.08418e-05
7.88771e-05
-9.28785e-07
7.80577e-05
-8.19443e-07
7.73505e-05
-7.0753e-07
7.67577e-05
-5.93227e-07
7.62815e-05
-4.76714e-07
7.59239e-05
-3.58189e-07
7.56867e-05
-2.37855e-07
7.55716e-05
-1.159e-07
7.58622e-09
7.558e-05
7.98009e-05
-8.08363e-05
7.88721e-05
7.80526e-05
7.73451e-05
7.67519e-05
7.62752e-05
7.5917e-05
7.56791e-05
7.55632e-05
7.55708e-05
7.8139e-05
9.61673e-07
7.79827e-05
1.43271e-06
7.78826e-05
2.12815e-06
7.78482e-05
2.99121e-06
7.77913e-05
3.78432e-06
7.7711e-05
4.57278e-06
7.7623e-05
5.40549e-06
7.7532e-05
6.28292e-06
7.74406e-05
7.2077e-06
7.73535e-05
8.18927e-06
7.72771e-05
9.23733e-06
7.72191e-05
1.03609e-05
7.7189e-05
1.15693e-05
7.71987e-05
1.28714e-05
7.72627e-05
1.42756e-05
7.73989e-05
1.57879e-05
7.76294e-05
1.74091e-05
7.79855e-05
1.91271e-05
7.85328e-05
2.08937e-05
2.25552e-05
7.81137e-05
8.1322e-07
7.80199e-05
1.52648e-06
7.79407e-05
2.20739e-06
7.7911e-05
3.02086e-06
7.78723e-05
3.82308e-06
7.78193e-05
4.62575e-06
7.7763e-05
5.46179e-06
7.77082e-05
6.33771e-06
7.76583e-05
7.25763e-06
7.76183e-05
8.22929e-06
7.75948e-05
9.26082e-06
7.75958e-05
1.03599e-05
7.76313e-05
1.15338e-05
7.77131e-05
1.27896e-05
7.7856e-05
1.41327e-05
7.80779e-05
1.5566e-05
7.84011e-05
1.7086e-05
7.88537e-05
1.86745e-05
7.94712e-05
2.02762e-05
2.17553e-05
7.80456e-05
7.47099e-07
7.80205e-05
1.55155e-06
7.79799e-05
2.24795e-06
7.79614e-05
3.03936e-06
7.79418e-05
3.84266e-06
7.79161e-05
4.65148e-06
7.78907e-05
5.48716e-06
7.78705e-05
6.35793e-06
7.78595e-05
7.26863e-06
7.7863e-05
8.22578e-06
7.78877e-05
9.23611e-06
7.79417e-05
1.03059e-05
7.80347e-05
1.14409e-05
7.81782e-05
1.2646e-05
7.83864e-05
1.39246e-05
7.86757e-05
1.52766e-05
7.90656e-05
1.66961e-05
7.95774e-05
1.81627e-05
8.02312e-05
1.96223e-05
2.09431e-05
7.80258e-05
7.13486e-07
7.80221e-05
1.55529e-06
7.80078e-05
2.26219e-06
7.8005e-05
3.04218e-06
7.80046e-05
3.84311e-06
7.80039e-05
4.65216e-06
7.80074e-05
5.48369e-06
7.80194e-05
6.34588e-06
7.80444e-05
7.24366e-06
7.80876e-05
8.18251e-06
7.81558e-05
9.16795e-06
7.82567e-05
1.0205e-05
7.83996e-05
1.1298e-05
7.85956e-05
1.24501e-05
7.88574e-05
1.36627e-05
7.91998e-05
1.49342e-05
7.96391e-05
1.62568e-05
8.01921e-05
1.76097e-05
8.0873e-05
1.89415e-05
2.01266e-05
7.8023e-05
6.94907e-07
7.80302e-05
1.54814e-06
7.80337e-05
2.2587e-06
7.80453e-05
3.03058e-06
7.80623e-05
3.82608e-06
7.8084e-05
4.63046e-06
7.81135e-05
5.45414e-06
7.81549e-05
6.30452e-06
7.82124e-05
7.18613e-06
7.82914e-05
8.10355e-06
7.83981e-05
9.06123e-06
7.85401e-05
1.00631e-05
7.87259e-05
1.11121e-05
7.89659e-05
1.22101e-05
7.92714e-05
1.33572e-05
7.96553e-05
1.45503e-05
8.01313e-05
1.57808e-05
8.07127e-05
1.70283e-05
8.14096e-05
1.82446e-05
1.93121e-05
7.80289e-05
6.82317e-07
7.80428e-05
1.53424e-06
7.80588e-05
2.24274e-06
7.80831e-05
3.00626e-06
7.81158e-05
3.79339e-06
7.81572e-05
4.5891e-06
7.82098e-05
5.4015e-06
7.82773e-05
6.23707e-06
7.83637e-05
7.09971e-06
7.84741e-05
7.99314e-06
7.86144e-05
8.92089e-06
7.87917e-05
9.88582e-06
7.90138e-05
1.08899e-05
7.92901e-05
1.19339e-05
7.96305e-05
1.30168e-05
8.00463e-05
1.41346e-05
8.05487e-05
1.52783e-05
8.11485e-05
1.64285e-05
8.18529e-05
1.75402e-05
1.85035e-05
7.80391e-05
6.71293e-07
7.8058e-05
1.51529e-06
7.80834e-05
2.21736e-06
7.81189e-05
2.97078e-06
7.81654e-05
3.74685e-06
7.82239e-05
4.5306e-06
7.82967e-05
5.32874e-06
7.83869e-05
6.14684e-06
7.84985e-05
6.98811e-06
7.86361e-05
7.85552e-06
7.88053e-05
8.75172e-06
7.90124e-05
9.67872e-06
7.92647e-05
1.06376e-05
7.95703e-05
1.16283e-05
7.99381e-05
1.2649e-05
8.03776e-05
1.36951e-05
8.08983e-05
1.47576e-05
8.15087e-05
1.58181e-05
8.2214e-05
1.68348e-05
1.7705e-05
7.80509e-05
6.59927e-07
7.80742e-05
1.49201e-06
7.81072e-05
2.18436e-06
7.81524e-05
2.92558e-06
7.8211e-05
3.68819e-06
7.82844e-05
4.45727e-06
7.83745e-05
5.2386e-06
7.84844e-05
6.03697e-06
7.86176e-05
6.85493e-06
7.87784e-05
7.69471e-06
7.89718e-05
8.55826e-06
7.92037e-05
9.44685e-06
7.94805e-05
1.03608e-05
7.98093e-05
1.12995e-05
8.0198e-05
1.22603e-05
8.06544e-05
1.32386e-05
8.11866e-05
1.42255e-05
8.18012e-05
1.52035e-05
8.25022e-05
1.61338e-05
1.69209e-05
7.80633e-05
6.47489e-07
7.80905e-05
1.46483e-06
7.81299e-05
2.14495e-06
7.81835e-05
2.87197e-06
7.82527e-05
3.61901e-06
7.83387e-05
4.3712e-06
7.84437e-05
5.13365e-06
7.85702e-05
5.91043e-06
7.87216e-05
6.70351e-06
7.89018e-05
7.51451e-06
7.91154e-05
8.34474e-06
7.93674e-05
9.19485e-06
7.96636e-05
1.00646e-05
8.00103e-05
1.09528e-05
8.04141e-05
1.18565e-05
8.08818e-05
1.27709e-05
8.14199e-05
1.36874e-05
8.20337e-05
1.45896e-05
8.2726e-05
1.54415e-05
1.61543e-05
7.80757e-05
6.33771e-07
7.81063e-05
1.43415e-06
7.81512e-05
2.10008e-06
7.82121e-05
2.81113e-06
7.82903e-05
3.5408e-06
7.83871e-05
4.27432e-06
7.85046e-05
5.01619e-06
7.86451e-05
5.76993e-06
7.88117e-05
6.53697e-06
7.90078e-05
7.3184e-06
7.92375e-05
8.11499e-06
7.95055e-05
8.9269e-06
7.98167e-05
9.75343e-06
8.01765e-05
1.05929e-05
8.05906e-05
1.14424e-05
8.10647e-05
1.22968e-05
8.16041e-05
1.3148e-05
8.22131e-05
1.39807e-05
8.28931e-05
1.47615e-05
1.54079e-05
7.80878e-05
6.18806e-07
7.81215e-05
1.40041e-06
7.8171e-05
2.05057e-06
7.8238e-05
2.74412e-06
7.83239e-05
3.45495e-06
7.84298e-05
4.16834e-06
7.85577e-05
4.88833e-06
7.87097e-05
5.61793e-06
7.88886e-05
6.35811e-06
7.90974e-05
7.10951e-06
7.934e-05
7.87248e-06
7.96201e-05
8.64673e-06
7.99423e-05
9.43124e-06
8.03112e-05
1.02241e-05
8.07315e-05
1.1022e-05
8.1208e-05
1.18203e-05
8.1745e-05
1.2611e-05
8.23457e-05
1.33799e-05
8.30109e-05
1.40963e-05
1.46834e-05
7.80995e-05
6.02726e-07
7.81358e-05
1.36405e-06
7.81892e-05
1.99717e-06
7.82614e-05
2.67197e-06
7.83536e-05
3.36274e-06
7.84671e-05
4.05488e-06
7.86034e-05
4.75198e-06
7.87647e-05
5.45665e-06
7.89533e-05
6.16946e-06
7.91722e-05
6.89067e-06
7.94244e-05
7.62025e-06
7.97135e-05
8.35762e-06
8.00433e-05
9.10148e-06
8.04176e-05
9.84969e-06
8.08406e-05
1.0599e-05
8.13162e-05
1.13448e-05
8.18476e-05
1.20796e-05
8.24375e-05
1.27901e-05
8.30859e-05
1.34479e-05
1.39821e-05
7.81107e-05
5.85699e-07
7.81493e-05
1.32552e-06
7.82059e-05
1.94057e-06
7.82823e-05
2.5956e-06
7.83797e-05
3.26534e-06
7.84992e-05
3.93536e-06
7.86423e-05
4.60888e-06
7.88108e-05
5.28809e-06
7.9007e-05
5.97326e-06
7.92333e-05
6.66435e-06
7.94926e-05
7.36103e-06
7.97877e-05
8.06245e-06
8.01221e-05
8.76712e-06
8.0499e-05
9.47281e-06
8.09217e-05
1.01763e-05
8.13935e-05
1.0873e-05
8.1917e-05
1.15561e-05
8.2494e-05
1.22131e-05
8.31241e-05
1.28178e-05
1.33047e-05
7.81215e-05
5.67902e-07
7.81618e-05
1.28523e-06
7.8221e-05
1.8814e-06
7.83008e-05
2.51585e-06
7.84023e-05
3.16383e-06
7.85265e-05
3.81111e-06
7.86749e-05
4.46055e-06
7.88489e-05
5.11402e-06
7.90507e-05
5.77153e-06
7.92823e-05
6.43275e-06
7.95461e-05
7.09715e-06
7.98449e-05
7.76368e-06
8.01813e-05
8.43071e-06
8.05582e-05
9.09596e-06
8.09782e-05
9.75627e-06
8.1444e-05
1.04073e-05
8.19576e-05
1.10425e-05
8.25202e-05
1.16505e-05
8.31309e-05
1.22071e-05
1.26516e-05
7.81319e-05
5.49502e-07
7.81735e-05
1.24356e-06
7.82347e-05
1.82024e-06
7.83171e-05
2.4335e-06
7.84217e-05
3.05918e-06
7.85495e-05
3.68329e-06
7.87017e-05
4.30837e-06
7.88797e-05
4.93602e-06
7.90852e-05
5.56599e-06
7.93202e-05
6.19778e-06
7.95867e-05
6.83065e-06
7.98869e-05
7.46343e-06
8.02233e-05
8.0944e-06
8.0598e-05
8.72126e-06
8.10133e-05
9.34095e-06
8.14712e-05
9.94933e-06
8.19734e-05
1.05403e-05
8.25205e-05
1.11034e-05
8.31112e-05
1.16163e-05
1.2023e-05
7.81417e-05
5.30656e-07