/*--------------------------------*- C++ -*----------------------------------*\
  =========                 |
  \\      /  F ield         | OpenFOAM: The Open Source CFD Toolbox
   \\    /   O peration     | Website:  https://openfoam.org
    \\  /    A nd           | Version:  6
     \\/     M anipulation  |
\*---------------------------------------------------------------------------*/
FoamFile
{
    version     2.0;
    format      ascii;
    class       volVectorField;
    location    "0.4";
    object      U;
}
// * * * * * * * * * * * * * * * * * * * * * * * * * * * * * * * * * * * * * //

dimensions      [0 1 -1 0 0 0 0];

internalField   nonuniform List<vector> 
5600
(
(1.07798 0.000765428 3.75518e-19)
(1.01989 0.00131939 -6.44514e-18)
(0.99603 0.00171827 6.43041e-18)
(0.996718 0.00206717 0)
(0.996821 0.00249649 0)
(0.993383 0.0030179 0)
(0.98881 0.00358675 -1.19949e-17)
(0.983785 0.00419287 1.19677e-17)
(0.978084 0.00484938 0)
(0.971535 0.00556891 0)
(0.964064 0.00636171 0)
(0.955597 0.00723957 0)
(0.946032 0.00821698 0)
(0.935246 0.00931069 -2.36146e-17)
(0.923097 0.010539 2.35617e-17)
(0.909422 0.0119202 -4.70191e-17)
(0.894039 0.0134672 4.69143e-17)
(0.876756 0.0151768 0)
(0.857385 0.0170075 -3.64901e-19)
(0.835785 0.0188242 0)
(1.0794 0.00175228 -3.70282e-19)
(1.01944 0.00354613 6.35589e-18)
(0.995926 0.00485958 -6.34372e-18)
(0.996967 0.0060754 0)
(0.99703 0.00742656 0)
(0.993544 0.00894321 2.44883e-17)
(0.989002 0.0105807 9.19476e-23)
(0.984033 0.0123368 -7.39148e-19)
(0.978399 0.0142399 1.10418e-22)
(0.971933 0.0163203 -2.35662e-17)
(0.964568 0.0186081 0)
(0.956233 0.0211383 -4.76883e-17)
(0.94683 0.0239526 4.68657e-17)
(0.936244 0.0270987 0)
(0.924342 0.0306287 0)
(0.910971 0.034593 0)
(0.89596 0.039027 0)
(0.879126 0.0439186 -4.64286e-17)
(0.86028 0.0491474 4.67035e-17)
(0.839192 0.0543684 4.55632e-17)
(1.08154 0.00244475 0)
(1.01954 0.00578935 0)
(0.995755 0.00809008 0)
(0.997123 0.0100714 0)
(0.997307 0.0122954 2.34665e-17)
(0.993875 0.0147974 -2.4164e-17)
(0.989432 0.0174907 -1.46232e-18)
(0.984601 0.0203778 -7.30081e-19)
(0.979132 0.0235071 2.33284e-17)
(0.972865 0.0269269 -2.1838e-17)
(0.965743 0.030686 -1.45373e-18)
(0.957704 0.0348412 4.71771e-17)
(0.948662 0.03946 -4.78323e-17)
(0.938516 0.0446195 1.44734e-18)
(0.92715 0.0504026 4.62476e-17)
(0.91443 0.0568902 -9.38027e-17)
(0.900201 0.0641376 -1.44156e-18)
(0.884297 0.0721247 4.60449e-17)
(0.866524 0.0806572 -1.43681e-18)
(0.846574 0.0891984 -7.17738e-19)
(1.08443 0.0032741 0)
(1.0199 0.00792014 -1.44776e-18)
(0.995555 0.0111303 0)
(0.997287 0.0139033 0)
(0.997697 0.0170024 0)
(0.9944 0.0204699 0)
(0.990136 0.0241928 1.44081e-18)
(0.985536 0.0281799 2.44698e-17)
(0.980343 0.0324981 -2.30078e-17)
(0.974404 0.0372128 -1.43659e-18)
(0.967677 0.0423897 2.87036e-18)
(0.960114 0.0481059 0)
(0.951648 0.0544523 -4.44037e-17)
(0.942198 0.061532 4.436e-17)
(0.931674 0.0694562 4.57466e-17)
(0.919969 0.0783325 -4.57015e-17)
(0.906959 0.0882356 9.27414e-17)
(0.892498 0.0991407 -9.12244e-17)
(0.876406 0.11079 1.42401e-18)
(0.858324 0.122487 1.4232e-18)
(1.08806 0.00412026 -5.62246e-18)
(1.0204 0.00994769 7.09902e-18)
(0.995336 0.0139881 -1.13552e-17)
(0.997517 0.0175223 -1.13505e-17)
(0.998233 0.0214679 2.26916e-17)
(0.995138 0.025863 2.26821e-17)
(0.991128 0.0305716 -2.26726e-17)
(0.986851 0.0356079 1.41645e-18)
(0.982041 0.0410545 1.41585e-18)
(0.976557 0.0469913 4.52886e-17)
(0.970373 0.0534986 -9.0539e-17)
(0.963463 0.0606706 1.4138e-18)
(0.955781 0.0686177 4.66446e-17)
(0.947274 0.0774651 1.41287e-18)
(0.937886 0.0873468 -4.37809e-17)
(0.927548 0.0983922 4.79969e-17)
(0.916173 0.110692 1.41107e-18)
(0.903647 0.124217 0)
(0.889828 0.138654 1.40986e-18)
(0.874332 0.153169 1.40965e-18)
(1.09239 0.00494891 5.50193e-18)
(1.02098 0.0118601 -5.55872e-18)
(0.995096 0.0166389 1.39018e-18)
(0.997838 0.0208742 0)
(0.998937 0.0256215 2.2252e-17)
(0.996099 0.0308974 -2.22566e-17)
(0.992412 0.0365366 1.39132e-18)
(0.98854 0.0425569 -4.73148e-17)
(0.98421 0.049054 -2.78394e-18)
(0.979294 0.0561192 8.90992e-17)
(0.973788 0.0638439 -4.73433e-17)
(0.967689 0.0723357 -1.39274e-18)
(0.960979 0.08172 -4.73623e-17)
(0.953638 0.0921379 -4.59786e-17)
(0.945647 0.10374 8.77932e-17)
(0.936986 0.11667 8.64169e-17)
(0.927613 0.13103 -9.06149e-17)
(0.917455 0.146786 8.7844e-17)
(0.906419 0.163575 -1.79904e-16)
(0.89413 0.180448 8.78905e-17)
(1.09738 0.00577074 0)
(1.02159 0.0136211 0)
(0.994826 0.0190135 -1.35917e-18)
(0.998276 0.0238904 2.17657e-17)
(0.99983 0.0294 -2.1785e-17)
(0.99729 0.0355069 -1.36275e-18)
(0.99398 0.0420124 -1.36397e-18)
(0.990582 0.0489383 1.36517e-18)
(0.986812 0.0563913 1.36638e-18)
(0.98256 0.0644707 0)
(0.977845 0.0732762 4.51698e-17)
(0.972691 0.082924 1.87106e-22)
(0.967109 0.0935495 -4.25065e-17)
(0.961117 0.105303 -8.64603e-17)
(0.954739 0.118344 1.75818e-16)
(0.948005 0.132822 -8.66109e-17)
(0.940927 0.148845 8.80628e-17)
(0.933478 0.166375 -8.67617e-17)
(0.925622 0.18501 -8.82157e-17)
(0.91702 0.203718 8.69165e-17)
(1.10297 0.00669217 0)
(1.0221 0.0151474 1.32444e-18)
(0.994498 0.0209839 -2.12274e-17)
(0.998866 0.0265069 2.25903e-17)
(1.00093 0.0327637 -2.12955e-17)
(0.998702 0.0396447 2.3996e-17)
(0.995804 0.0469406 0)
(0.992933 0.0546795 1.33741e-18)
(0.989788 0.0629755 0)
(0.986274 0.0719338 -1.34172e-18)
(0.98244 0.081659 4.30047e-17)
(0.978334 0.0922718 -4.30739e-17)
(0.974 0.103911 -8.62872e-17)
(0.969493 0.116728 8.50758e-17)
(0.964884 0.130883 0)
(0.960254 0.146526 0)
(0.955672 0.163761 8.68456e-17)
(0.951164 0.182554 1.7359e-22)
(0.946765 0.202486 -8.71256e-17)
(0.942184 0.222511 8.86241e-17)
(1.10912 0.00824245 -4.46447e-18)
(1.02212 0.0161073 4.51457e-18)
(0.994116 0.0222231 0)
(0.999706 0.0287076 -1.94436e-18)
(1.00223 0.0357798 -2.07889e-17)
(1.00029 0.0433668 -2.21408e-17)
(0.997833 0.0513766 8.35523e-17)
(0.995531 0.0598451 -4.31845e-17)
(0.993055 0.0688811 -4.19761e-17)
(0.990334 0.0785938 4.33915e-17)
(0.987442 0.0890908 -8.43553e-17)
(0.984453 0.100492 1.69116e-16)
(0.981439 0.112932 1.78551e-22)
(0.978494 0.126556 -8.49654e-17)
(0.975732 0.141511 0)
(0.973291 0.157936 8.53759e-17)
(0.971301 0.17593 -1.71164e-16)
(0.969852 0.195467 8.57891e-17)
(0.969089 0.216142 0)
(0.968823 0.236907 0)
(1.11584 0.0111131 -5.57702e-18)
(1.02051 0.015671 4.38807e-18)
(0.994026 0.0222661 0)
(1.00119 0.0305661 2.0822e-17)
(1.00375 0.0385976 -2.02553e-17)
(1.00198 0.0467775 -4.06396e-17)
(1.00005 0.0554181 -6.33799e-23)
(0.998366 0.0645536 8.18003e-17)
(0.996594 0.0742559 -8.20629e-17)
(0.994704 0.084637 4.11634e-17)
(0.992794 0.0958099 -8.25923e-17)
(0.990953 0.107891 8.2859e-17)
(0.98928 0.121003 -8.31272e-17)
(0.987901 0.135275 8.33967e-17)
(0.986969 0.150833 8.36677e-17)
(0.986675 0.167787 -8.39401e-17)
(0.987219 0.186209 0)
(0.988788 0.206098 -8.44886e-17)
(0.991663 0.227192 8.47654e-17)
(0.99577 0.248468 8.50201e-17)
(0.808696 0.0204028 0)
(0.771929 0.0225713 0)
(0.727792 0.0250586 4.24807e-17)
(0.67427 0.0279093 -2.30584e-17)
(0.608686 0.0311212 -2.52146e-17)
(0.52766 0.03453 4.17134e-17)
(0.427641 0.0375743 -1.54923e-17)
(0.305294 0.0389305 3.49607e-17)
(0.159666 0.0359666 0)
(0.0445351 0.0203187 0)
(0.812843 0.0592222 -1.84328e-17)
(0.776889 0.0658271 -5.94117e-17)
(0.733551 0.0734282 -2.13677e-17)
(0.680957 0.0821611 2.3196e-17)
(0.616432 0.0920227 2.5361e-17)
(0.536548 0.102509 -5.59292e-17)
(0.43763 0.111928 4.67227e-17)
(0.316094 0.116224 -8.78169e-17)
(0.169978 0.10708 -1.00567e-17)
(0.050617 0.0606948 6.42941e-17)
(0.821739 0.0971886 1.85089e-17)
(0.787291 0.108076 -1.9886e-17)
(0.745491 0.120631 4.29146e-17)
(0.694697 0.135049 4.65922e-17)
(0.63222 0.151325 -5.09502e-17)
(0.554547 0.168609 -2.80939e-17)
(0.457741 0.184102 3.1301e-17)
(0.337587 0.191057 -5.29578e-17)
(0.190475 0.175427 8.08885e-17)
(0.0627894 0.0996013 -1.52866e-16)
(0.835787 0.13343 3.70443e-17)
(0.803411 0.148444 0)
(0.763765 0.165749 0)
(0.715518 0.185572 -4.66273e-17)
(0.655948 0.2079 5.09884e-17)
(0.581405 0.231536 1.96151e-21)
(0.487564 0.252591 0)
(0.369246 0.261728 7.06737e-17)
(0.220581 0.239568 -6.0718e-17)
(0.0806622 0.135858 1.88316e-16)
(0.854791 0.166699 -3.69488e-17)
(0.82496 0.185548 0)
(0.787981 0.207288 8.56527e-17)
(0.742921 0.232128 0)
(0.68699 0.260045 5.08323e-17)
(0.616348 0.289493 5.60547e-17)
(0.526175 0.315519 0)
(0.410054 0.326335 1.40845e-16)
(0.259258 0.297731 -2.01641e-17)
(0.10356 0.168375 -7.03323e-17)
(0.878141 0.196084 1.85716e-21)
(0.851229 0.218374 -1.57809e-16)
(0.817338 0.244135 -2.47547e-21)
(0.77599 0.273505 0)
(0.724288 0.306446 -5.04988e-17)
(0.658162 0.341063 -5.56661e-17)
(0.5722 0.371368 0)
(0.458525 0.383285 -1.39763e-16)
(0.305054 0.34835 -1.59954e-16)
(0.130566 0.196217 2.32315e-17)
(0.904965 0.220958 6.95929e-22)
(0.881228 0.246253 1.02403e-21)
(0.850736 0.275568 1.68616e-16)
(0.813499 0.308928 -1.19182e-21)
(0.76646 0.346268 -9.99617e-17)
(0.705286 0.385323 -1.10147e-16)
(0.623895 0.419106 -3.06489e-17)
(0.512784 0.431432 3.45269e-17)
(0.356157 0.390246 1.18457e-16)
(0.160533 0.218641 2.29131e-16)
(0.934255 0.240994 -1.62471e-21)
(0.91376 0.2689 7.71968e-17)
(0.886845 0.301301 -1.66461e-16)
(0.853972 0.338105 -4.5143e-17)
(0.811845 0.37919 2.46512e-16)
(0.755865 0.421903 1.08597e-16)
(0.679237 0.458277 -1.20775e-16)
(0.570727 0.470232 0)
(0.410584 0.422829 3.88268e-17)
(0.192178 0.235237 -4.05047e-16)
(0.964952 0.256285 -1.14057e-21)
(0.947233 0.28641 -7.6001e-17)
(0.923891 0.321491 3.72101e-21)
(0.895493 0.361255 -8.88123e-17)
(0.858419 0.405488 9.6943e-17)
(0.807862 0.451126 5.33511e-17)
(0.736272 0.489251 5.92956e-17)
(0.630534 0.5001 -3.33366e-17)
(0.466608 0.446486 3.8033e-17)
(0.224239 0.246105 1.76097e-16)
(0.995083 0.268351 -6.95311e-17)
(0.979052 0.300246 -7.46003e-17)
(0.95944 0.33765 8.03691e-17)
(0.935683 0.379905 8.70872e-17)
(0.90395 0.42658 -1.90038e-16)
(0.859266 0.474115 0)
(0.793122 0.512686 0)
(0.690147 0.52121 -3.25867e-17)
(0.521681 0.461146 3.71276e-17)
(0.254753 0.251014 0)
(1.02323 0.287566 6.8001e-17)
(1.00807 0.320418 7.30389e-17)
(0.992013 0.358152 0)
(0.972097 0.400592 -8.5429e-17)
(0.944744 0.446506 0)
(0.904576 0.491601 -1.02786e-16)
(0.841986 0.525547 -5.71705e-17)
(0.739604 0.527426 -6.43597e-17)
(0.565691 0.460204 -1.47091e-16)
(0.278256 0.246604 1.70641e-16)
(1.05409 0.304903 1.51771e-21)
(1.04234 0.338235 -1.48542e-16)
(1.02969 0.375418 2.08893e-21)
(1.01313 0.416727 8.69132e-17)
(0.98905 0.460059 0)
(0.951365 0.500343 1.04642e-16)
(0.889286 0.526884 0)
(0.783866 0.519456 1.31182e-16)
(0.601864 0.443858 1.44243e-20)
(0.295577 0.232558 -1.74139e-16)
(1.08638 0.318068 7.01256e-17)
(1.07846 0.350906 -7.53383e-17)
(1.06907 0.386878 2.43802e-16)
(1.05541 0.426083 -8.81975e-17)
(1.03367 0.465717 -9.63953e-17)
(0.997055 0.500081 -5.31239e-17)
(0.933729 0.518313 2.24987e-21)
(0.823557 0.501159 6.66598e-17)
(0.632521 0.417733 2.66945e-16)
(0.30863 0.212902 4.43039e-17)
(1.11972 0.326279 -1.41921e-16)
(1.11534 0.357905 0)
(1.10883 0.391938 -4.24514e-21)
(1.09743 0.428096 8.9285e-17)
(1.07702 0.463031 2.44033e-16)
(1.04012 0.490633 5.38054e-17)
(0.974023 0.500143 1.19855e-16)
(0.857736 0.473635 -1.01355e-16)
(0.657017 0.383956 -1.93413e-16)
(0.317318 0.189492 1.79861e-16)
(1.1534 0.329239 7.16329e-17)
(1.15204 0.359004 7.69652e-17)
(1.14779 0.390383 -1.66101e-16)
(1.13779 0.422631 -4.50847e-17)
(1.11747 0.451992 -1.97183e-16)
(1.07874 0.472154 -1.63083e-16)
(1.00818 0.472763 -2.42248e-16)
(0.884396 0.437625 1.36629e-16)
(0.673639 0.343775 0)
(0.321033 0.163488 -2.0479e-16)
(1.18641 0.326744 1.08185e-16)
(1.18741 0.354068 0)
(1.1846 0.382158 0)
(1.17491 0.409787 0)
(1.15329 0.432926 0)
(1.11106 0.44527 1.09539e-16)
(1.0344 0.437161 1.22062e-16)
(0.901954 0.394498 0)
(0.681313 0.298838 0)
(0.319571 0.136084 -9.18117e-17)
(1.2177 0.318814 -3.62154e-17)
(1.22023 0.343201 -8.47837e-22)
(1.21786 0.367478 -4.19971e-17)
(1.20724 0.389959 4.56022e-17)
(1.18281 0.406493 -4.98768e-17)
(1.13548 0.410987 1.37551e-16)
(1.05125 0.394741 -3.06606e-17)
(0.90939 0.346021 6.91979e-17)
(0.679632 0.251027 -1.98276e-17)
(0.313102 0.108452 9.23227e-17)
(1.24622 0.305706 7.2545e-17)
(1.24931 0.326768 -3.89752e-17)
(1.24623 0.346839 0)
(1.23331 0.363842 -4.56786e-17)
(1.20457 0.373661 0)
(1.15064 0.370604 -5.51165e-17)
(1.05772 0.347156 -3.07132e-17)
(0.906219 0.294117 3.46613e-17)
(0.668732 0.202235 0)
(0.302058 0.0816586 -1.15635e-17)
(1.27099 0.287879 -5.43486e-17)
(1.27358 0.305357 3.89314e-17)
(1.26859 0.320974 0)
(1.25205 0.332362 0)
(1.21763 0.335599 4.99006e-17)
(1.15591 0.325576 -2.75248e-17)
(1.05363 0.296147 -3.06754e-17)
(0.892811 0.240718 -6.92407e-17)
(0.649426 0.154272 3.96803e-17)
(0.287137 0.0566391 -5.19623e-17)
(1.29128 0.265971 5.41459e-17)
(1.29243 0.279625 -5.58031e-22)
(1.28443 0.290552 -2.09266e-17)
(1.26302 0.296249 0)
(1.22167 0.293172 -2.48508e-17)
(1.15113 0.276996 -1.37048e-17)
(1.03907 0.24311 3.81832e-17)
(0.869549 0.187489 8.61701e-18)
(0.622315 0.108796 -4.44362e-17)
(0.268787 0.0342057 5.17134e-17)
(1.03529 0.263314 -4.1861e-16)
(1.06406 0.279105 1.03546e-16)
(1.09341 0.291418 0)
(1.12365 0.299482 1.02422e-16)
(1.15442 0.303052 -3.13944e-23)
(1.18481 0.301946 -1.56593e-18)
(1.21393 0.29613 7.7899e-19)
(1.24089 0.285762 -5.00343e-17)
(1.26489 0.271165 4.98765e-17)
(1.28511 0.25291 -2.46908e-17)
(1.04433 0.250259 2.0876e-16)
(1.07088 0.263428 0)
(1.09785 0.27385 0)
(1.12559 0.280768 1.00682e-16)
(1.15397 0.283897 1.57414e-18)
(1.18218 0.283071 -7.82221e-19)
(1.20943 0.278241 7.78299e-19)
(1.23498 0.269509 4.88348e-17)
(1.25814 0.25711 -4.94572e-17)
(1.27804 0.241563 2.46759e-17)
(1.05314 0.239269 0)
(1.07716 0.250196 -1.03181e-16)
(1.10169 0.258663 1.02245e-16)
(1.12695 0.264245 -1.01438e-16)
(1.15294 0.266671 0)
(1.17892 0.265788 -7.82524e-19)
(1.20424 0.261547 -9.89069e-17)
(1.22825 0.254014 0)
(1.25041 0.243364 0)
(1.2698 0.230054 -2.47036e-17)
(1.06101 0.228764 0)
(1.0829 0.237698 1.08036e-21)
(1.10518 0.244469 -1.02162e-16)
(1.1281 0.248857 1.01399e-16)
(1.15175 0.250622 7.87077e-19)
(1.17553 0.249628 -1.00982e-16)
(1.19887 0.245828 -2.89151e-22)
(1.22126 0.239261 0)
(1.24226 0.230055 0)
(1.26095 0.218603 0)
(1.06759 0.218596 -1.03787e-16)
(1.08769 0.225908 2.05815e-16)
(1.10801 0.231284 7.97472e-19)
(1.12886 0.234648 -1.02153e-16)
(1.15038 0.235812 -7.87088e-19)
(1.17208 0.234667 -1.00233e-16)
(1.19353 0.231176 1.50493e-16)
(1.21429 0.225364 -3.88554e-19)
(1.23404 0.217327 -4.92204e-17)
(1.25188 0.207397 -2.47598e-17)
(1.07293 0.208718 2.07183e-16)
(1.09145 0.214752 -1.02771e-16)
(1.11008 0.219021 1.01994e-16)
(1.12911 0.221545 1.00531e-16)
(1.14874 0.222191 1.02324e-16)
(1.16858 0.220885 9.9484e-17)
(1.18827 0.217606 -4.99352e-17)
(1.20747 0.212375 -3.88881e-19)
(1.22594 0.20527 3.8766e-19)
(1.24286 0.196578 2.47877e-17)
(1.07717 0.199116 -1.03801e-16)
(1.09426 0.204127 -1.02233e-16)
(1.11139 0.207523 -1.01911e-16)
(1.12886 0.209381 -1.01285e-16)
(1.14683 0.209611 -9.99638e-17)
(1.165 0.208167 9.87344e-17)
(1.18309 0.205046 -4.91854e-17)
(1.20084 0.200273 0)
(1.21808 0.193918 9.94165e-17)
(1.23403 0.186231 0)
(1.08042 0.189802 0)
(1.09622 0.193979 1.02499e-16)
(1.11203 0.196686 -1.01827e-16)
(1.12811 0.198024 7.90984e-19)
(1.14463 0.197933 -1.02326e-16)
(1.16134 0.196389 -1.00336e-16)
(1.17801 0.193405 5.07781e-17)
(1.19443 0.189007 -4.98611e-17)
(1.2105 0.183263 -9.95172e-17)
(1.2255 0.1764 0)
(1.0828 0.180791 -1.03008e-16)
(1.09743 0.184282 0)
(1.11206 0.186444 1.01744e-16)
(1.12693 0.187379 1.02e-16)
(1.14218 0.187049 9.34211e-23)
(1.15759 0.185446 9.95859e-17)
(1.17299 0.18259 0)
(1.18822 0.178512 4.99029e-17)
(1.2032 0.173278 5.00035e-17)
(1.21728 0.167099 -2.50666e-17)
(1.08444 0.172092 1.02816e-16)
(1.098 0.17502 -1.02228e-16)
(1.11157 0.176747 1.0166e-16)
(1.12537 0.177372 -1.00381e-16)
(1.13949 0.176871 1.99934e-16)
(1.15376 0.175244 -9.88353e-17)
(1.16804 0.172515 -7.82174e-19)
(1.18219 0.16872 -3.90192e-19)
(1.19617 0.163923 -4.94701e-17)
(1.20938 0.158319 2.49004e-17)
(1.08542 0.163714 0)
(1.09802 0.166176 1.02094e-16)
(1.11064 0.167556 -1.01577e-16)
(1.12348 0.167945 -7.90094e-19)
(1.1366 0.167325 -9.91806e-17)
(1.14987 0.165703 -7.84681e-19)
(1.16315 0.163105 -7.82643e-19)
(1.17634 0.159566 7.81053e-19)
(1.18941 0.15515 4.991e-17)
(1.20181 0.150041 2.49287e-17)
(1.08584 0.155659 1.02831e-16)
(1.09758 0.157736 -3.98281e-19)
(1.10935 0.158839 0)
(1.12132 0.159047 0)
(1.13356 0.15835 7.87148e-19)
(1.14592 0.156755 -5.18061e-17)
(1.15832 0.154291 1.19906e-23)
(1.17064 0.150989 5.042e-17)
(1.18289 0.146914 3.90321e-19)
(1.19456 0.142236 -2.4957e-17)
(1.0858 0.147926 -1.0224e-16)
(1.09675 0.149684 -1.01825e-16)
(1.10774 0.150565 -1.01411e-16)
(1.11895 0.150638 -7.895e-19)
(1.13039 0.149895 1.18682e-23)
(1.14196 0.148345 5.02533e-17)
(1.15356 0.146015 7.83621e-19)
(1.16511 0.142936 1.02647e-22)
(1.17661 0.139168 0)
(1.18759 0.134872 0)
(1.08536 0.14051 -1.02448e-16)
(1.0956 0.142005 2.03779e-16)
(1.1059 0.142709 1.01328e-16)
(1.11641 0.142681 0)
(1.12714 0.141916 -9.99703e-17)
(1.13798 0.140423 4.94848e-17)
(1.14887 0.138227 0)
(1.15972 0.135358 -5.05048e-17)
(1.17055 0.131871 -2.464e-17)
(1.18091 0.127919 0)
(1.08459 0.133404 1.02257e-16)
(1.09418 0.134682 -1.01954e-16)
(1.10386 0.135246 0)
(1.11374 0.135145 1.00191e-16)
(1.12383 0.134375 1.00758e-16)
(1.13403 0.132948 -1.00575e-16)
(1.14427 0.130885 -4.94287e-17)
(1.1545 0.128213 0)
(1.1647 0.124986 2.50565e-17)
(1.1745 0.121345 0)
(1.08355 0.1266 1.0167e-16)
(1.09257 0.1277 0)
(1.10167 0.128152 0)
(1.11099 0.127999 -1.00154e-16)
(1.12049 0.12724 -9.89865e-24)
(1.13011 0.125883 4.87323e-17)
(1.13977 0.123949 5.10293e-17)
(1.14942 0.121465 -3.92168e-19)
(1.15907 0.118478 1.95957e-19)
(1.16834 0.115121 1.95867e-19)
(1.08229 0.120089 -2.02962e-16)
(1.09078 0.121041 1.01291e-16)
(1.09938 0.121406 7.89681e-19)
(1.10818 0.121219 -7.88318e-19)
(1.11715 0.120479 -5.03798e-17)
(1.12624 0.119196 0)
(1.13538 0.117388 0)
(1.14451 0.11508 5.02402e-17)
(1.15365 0.112317 0)
(1.16244 0.109221 0)
(1.08086 0.113859 1.01689e-16)
(1.08888 0.11469 -1.01553e-16)
(1.09701 0.114987 7.89035e-19)
(1.10534 0.114779 -1.02442e-16)
(1.11384 0.114066 5.11673e-17)
(1.12244 0.112858 0)
(1.1311 0.111172 -7.86031e-19)
(1.13976 0.10903 -4.98897e-17)
(1.14843 0.106474 1.96356e-19)
(1.15679 0.103619 1.96314e-19)
(1.0793 0.1079 -1.015e-16)
(1.08689 0.108631 3.94632e-19)
(1.0946 0.108876 -1.00914e-16)
(1.1025 0.108658 1.00828e-16)
(1.11056 0.107977 7.87188e-19)
(1.11873 0.106844 -7.86806e-19)
(1.12695 0.105275 4.95508e-17)
(1.13518 0.103289 7.86332e-19)
(1.14341 0.100927 0)
(1.15137 0.098294 0)
(1.07764 0.1022 -3.93951e-19)
(1.08484 0.10285 1.01287e-16)
(1.09216 0.103055 1.00832e-16)
(1.09968 0.102834 -1.01577e-16)
(1.10734 0.102189 5.11678e-17)
(1.11511 0.101131 0)
(1.12293 0.0996723 -5.03683e-17)
(1.13076 0.0978337 -3.93494e-19)
(1.1386 0.0956516 3.93508e-19)
(1.14619 0.093225 0)
(1.07591 0.0967474 3.9372e-19)
(1.08276 0.0973302 -1.01154e-16)
(1.08973 0.0975056 -1.00749e-16)
(1.09689 0.0972886 1.00751e-16)
(1.10419 0.0966822 -1.00762e-16)
(1.11159 0.0956958 0)
(1.11904 0.0943434 0)
(1.12651 0.0926428 -3.93826e-19)
(1.13399 0.0906287 -2.50131e-17)
(1.14124 0.0883932 2.54115e-17)
(1.07413 0.0915304 1.00153e-16)
(1.08067 0.0920584 -1.00236e-16)
(1.08732 0.092212 1.00667e-16)
(1.09415 0.0920035 -5.1143e-17)
(1.10112 0.0914365 7.87224e-19)
(1.10818 0.0905203 0)
(1.1153 0.0892683 -5.04305e-17)
(1.12243 0.0876972 -3.94159e-19)
(1.12958 0.0858397 2.56301e-17)
(1.13652 0.0837814 -2.52433e-17)
(1.07234 0.0865375 0)
(1.07858 0.0870203 1.00497e-16)
(1.08494 0.0871585 -1.00584e-16)
(1.09148 0.0869619 5.11235e-17)
(1.09814 0.0864346 4.95939e-17)
(1.1049 0.0855861 0)
(1.1117 0.084429 4.96731e-17)
(1.11853 0.0829793 3.94499e-19)
(1.12537 0.0812676 1.97359e-19)
(1.13201 0.0793739 1.97441e-19)
(1.07055 0.0817571 3.91309e-19)
(1.07652 0.0822026 -3.92056e-19)
(1.08261 0.0823303 1.00502e-16)
(1.08888 0.0821479 7.86211e-19)
(1.09526 0.0816602 -5.03812e-17)
(1.10173 0.0808764 4.96519e-17)
(1.10825 0.0798088 -4.97037e-17)
(1.11479 0.0784727 2.40845e-17)
(1.12135 0.0768968 5.92676e-19)
(1.12772 0.0751559 -1.97667e-19)
(1.06876 0.0771779 9.96005e-17)
(1.07449 0.0775926 3.91544e-19)
(1.08034 0.0777134 0)
(1.08635 0.0775467 0)
(1.09248 0.0770978 1.62538e-23)
(1.09869 0.0763757 -5.04569e-17)
(1.10495 0.0753924 1.00258e-16)
(1.11123 0.0741625 3.95183e-19)
(1.11752 0.0727132 1.97763e-19)
(1.12365 0.0711141 1.28631e-17)
(1.06701 0.0727889 -9.94176e-17)
(1.07251 0.0731777 -3.91033e-19)
(1.07814 0.0732944 -5.01687e-17)
(1.08392 0.0731444 0)
(1.08981 0.072733 5.03814e-17)
(1.09578 0.0720696 0)
(1.1018 0.0711655 -4.97651e-17)
(1.10784 0.0700348 -2.64983e-17)
(1.11389 0.0687032 3.95928e-19)
(1.11978 0.0672359 1.38465e-23)
(1.06529 0.0685793 -1.00013e-16)
(1.07059 0.0689462 3.90522e-19)
(1.07601 0.0690608 5.01277e-17)
(1.08158 0.0689277 -7.85307e-19)
(1.08725 0.0685524 7.87213e-19)
(1.093 0.0679444 0)
(1.0988 0.0671146 -7.90406e-19)
(1.10461 0.0660765 3.95836e-19)
(1.11043 0.0648545 1.98169e-19)
(1.11612 0.0635095 -1.2496e-17)
(1.06361 0.0645388 9.9053e-17)
(1.06873 0.0648868 3.90013e-19)
(1.07396 0.0650006 -7.826e-19)
(1.07934 0.0648842 1.57002e-18)
(1.08481 0.0645434 -7.87213e-19)
(1.09035 0.0639876 0)
(1.09594 0.0632273 -2.53087e-17)
(1.10155 0.0622756 0)
(1.10717 0.0611556 0)
(1.11266 0.0599241 1.2709e-17)
(1.062 0.0606572 4.96296e-17)
(1.06694 0.0609886 0)
(1.072 0.0611024 0)
(1.07719 0.0610022 -7.84703e-19)
(1.08248 0.0606942 -4.95942e-17)
(1.08784 0.0601873 0)
(1.09324 0.059492 2.61157e-17)
(1.09865 0.0586209 -1.18951e-18)
(1.10408 0.0575957 3.97148e-19)
(1.10938 0.0564695 -1.27237e-17)
(1.06044 0.0569248 -9.94645e-17)
(1.06522 0.0572412 3.88998e-19)
(1.07012 0.0573554 7.81318e-19)
(1.07515 0.0572707 -5.17706e-17)
(1.08027 0.0569934 1.02337e-16)
(1.08545 0.0565324 -7.8971e-19)
(1.09068 0.0558978 2.53399e-17)
(1.09592 0.0551016 -3.96839e-19)
(1.10116 0.0541646 1.9878e-19)
(1.1063 0.0531362 1.99038e-19)
(1.05894 0.0533321 4.90619e-17)
(1.06358 0.0536346 3.88491e-19)
(1.06834 0.0537492 0)
(1.07321 0.0536791 4.93983e-17)
(1.07817 0.0534305 -4.95941e-17)
(1.0832 0.0530123 2.52791e-17)
(1.08826 0.0524343 3.60042e-24)
(1.09334 0.0517079 -3.97176e-19)
(1.09842 0.0508528 3.97966e-19)
(1.1034 0.0499152 0)
(1.05752 0.0498699 -3.85607e-19)
(1.06202 0.0501593 3.87986e-19)
(1.06664 0.0502742 0)
(1.07138 0.0502175 -5.0163e-17)
(1.0762 0.0499957 7.87204e-19)
(1.08107 0.0496174 -5.13652e-17)
(1.08599 0.0490919 -2.53712e-17)
(1.09091 0.0484305 -2.58384e-17)
(1.09584 0.0476516 1.99189e-19)
(1.10068 0.0467981 1.99498e-19)
(1.05616 0.0465295 -4.96527e-17)
(1.06055 0.0468062 4.99849e-17)
(1.06504 0.0469208 0)
(1.06965 0.0468764 5.09271e-17)
(1.07433 0.0466794 -7.87207e-19)
(1.07907 0.0463381 2.52959e-17)
(1.08385 0.0458616 0)
(1.08864 0.0452606 2.50647e-17)
(1.09343 0.0445524 5.98178e-19)
(1.09814 0.0437771 -1.9973e-19)
(1.05488 0.0433025 4.87938e-17)
(1.05916 0.0435665 3.86942e-19)
(1.06354 0.0436803 7.78759e-19)
(1.06802 0.043647 -7.83193e-19)
(1.07259 0.0434727 0)
(1.0772 0.0431657 2.53043e-17)
(1.08185 0.0427347 -2.61963e-17)
(1.08651 0.0421899 2.58824e-17)
(1.09117 0.0415474 1.996e-19)
(1.09576 0.0408446 1.29974e-17)
(1.05367 0.0401805 -4.90884e-17)
(1.05785 0.0404318 -4.94687e-17)
(1.06212 0.0405442 0)
(1.0665 0.0405206 0)
(1.07095 0.0403672 0)
(1.07545 0.0400919 -5.06254e-17)
(1.07999 0.0397031 7.94314e-19)
(1.08453 0.0392105 -2.67015e-17)
(1.08908 0.0386292 3.9961e-19)
(1.09355 0.0379937 -1.28123e-17)
(1.05254 0.0371559 -3.82767e-19)
(1.05662 0.0373942 3.85974e-19)
(1.06081 0.0375043 -7.77481e-19)
(1.06508 0.0374891 7.82584e-19)
(1.06943 0.0373547 7.87193e-19)
(1.07383 0.0371088 -7.91284e-19)
(1.07826 0.0367592 2.46391e-17)
(1.08269 0.036315 3.98872e-19)
(1.08713 0.0357906 4.00023e-19)
(1.0915 0.0352176 0)
(1.05149 0.0342208 4.8528e-17)
(1.05549 0.0344458 3.85473e-19)
(1.05958 0.0345528 2.48591e-17)
(1.06377 0.0345448 7.82275e-19)
(1.06802 0.0344277 -4.36142e-24)
(1.07233 0.0342088 -7.91546e-19)
(1.07666 0.0338955 0)
(1.08099 0.0334965 0)
(1.08533 0.033025 1.28139e-17)
(1.0896 0.0325101 0)
(1.05052 0.0313682 3.81415e-19)
(1.05443 0.0315793 -3.84973e-19)
(1.05845 0.0316824 -2.56149e-17)
(1.06255 0.0316803 4.19253e-24)
(1.06672 0.0315788 7.8719e-19)
(1.07094 0.0313848 2.53378e-17)
(1.07518 0.0311052 2.54653e-17)
(1.07943 0.0307482 -3.99548e-19)
(1.08367 0.030326 -1.24263e-17)
(1.08786 0.0298653 0)
(1.04962 0.0285907 -3.80723e-19)
(1.05347 0.0287875 3.84474e-19)
(1.05741 0.0288858 -2.48183e-17)
(1.06144 0.0288885 0)
(1.06553 0.028801 0)
(1.06967 0.0286299 0)
(1.07383 0.0283817 -2.5481e-17)
(1.078 0.0280639 -1.31964e-17)
(1.08216 0.0276876 4.01266e-19)
(1.08627 0.0272773 0)
(1.0488 0.0258816 -3.80034e-19)
(1.05258 0.0260635 3.83977e-19)
(1.05646 0.0261562 2.4023e-17)
(1.06043 0.0261626 4.02606e-24)
(1.06445 0.0260877 7.8718e-19)
(1.06851 0.0259377 0)
(1.0726 0.0257186 7.96771e-19)
(1.0767 0.0254373 1.16067e-17)
(1.08078 0.0251041 -1.24521e-17)
(1.08482 0.0247409 0)
(1.04805 0.0232343 0)
(1.05179 0.0234007 2.45426e-17)
(1.05561 0.023487 2.47775e-17)
(1.05951 0.023496 -7.81054e-19)
(1.06347 0.0234324 7.87174e-19)
(1.06747 0.0233018 0)
(1.0715 0.0231099 1.35535e-17)
(1.07552 0.0228628 -1.20172e-18)
(1.07954 0.0225699 1.30682e-17)
(1.08352 0.0222507 2.01597e-19)
(1.04739 0.0206423 -3.7866e-19)
(1.05107 0.0207927 -2.41279e-17)
(1.05484 0.0208718 -2.39835e-17)
(1.05869 0.0208824 -3.89245e-24)
(1.0626 0.0208289 -7.87168e-19)
(1.06654 0.0207163 0)
(1.07051 0.0205497 -1.35619e-17)
(1.07448 0.0203348 4.00918e-19)
(1.07843 0.0200797 6.03774e-19)
(1.08235 0.0198019 -2.01833e-19)
(1.0468 0.0180993 3.77976e-19)
(1.05044 0.0182331 -3.82489e-19)
(1.05417 0.0183044 0)
(1.05797 0.0183158 0)
(1.06182 0.0182713 0)
(1.06572 0.0181753 -1.26898e-17)
(1.06963 0.0180325 -1.2772e-17)
(1.07355 0.0178478 -4.01257e-19)
(1.07745 0.0176284 2.01469e-19)
(1.08132 0.0173896 2.0207e-19)
(1.04628 0.0155993 -3.77294e-19)
(1.04989 0.0157159 3.81994e-19)
(1.05358 0.0157789 1.31306e-17)
(1.05734 0.0157903 -1.32623e-17)
(1.06115 0.0157538 0)
(1.065 0.0156734 2.5388e-17)
(1.06887 0.0155529 1.27799e-17)
(1.07274 0.0153968 6.02402e-18)
(1.0766 0.0152111 -6.25198e-18)
(1.08043 0.015009 2.02306e-19)
(1.04584 0.0131363 -1.24283e-17)
(1.04942 0.0132353 1.25895e-17)
(1.05308 0.0132893 -1.23481e-17)
(1.0568 0.0133001 2.41747e-17)
(1.06058 0.0132709 7.87148e-19)
(1.06439 0.0132049 -2.53964e-17)
(1.06822 0.0131056 6.39389e-18)
(1.07206 0.0129766 -6.83306e-18)
(1.07587 0.012823 6.86416e-18)
(1.07966 0.0126558 0)
(1.04548 0.0107044 1.24059e-17)
(1.04903 0.0107855 -3.81011e-19)
(1.05266 0.0108301 -7.7112e-19)
(1.05636 0.0108398 -1.16928e-17)
(1.06011 0.0108171 0)
(1.06389 0.0107648 1.27023e-17)
(1.06769 0.0106856 -7.19757e-18)
(1.07149 0.0105823 -5.22976e-18)
(1.07527 0.0104593 -6.06293e-19)
(1.07902 0.0103253 2.02782e-19)
(1.04519 0.00829806 -1.20083e-17)
(1.04872 0.00836092 -1.80294e-24)
(1.05233 0.00839577 7.70486e-19)
(1.05601 0.00840389 -1.55843e-18)
(1.05973 0.00838721 1.57426e-18)
(1.06349 0.0083478 -7.14741e-18)
(1.06726 0.0082877 5.60157e-18)
(1.07103 0.00820914 3.62371e-18)
(1.07479 0.00811537 3.84386e-18)
(1.07852 0.00801324 -2.0302e-19)
(1.04497 0.00591154 1.16121e-17)
(1.04849 0.00595591 -1.17808e-17)
(1.05208 0.00598076 0)
(1.05574 0.00598694 0)
(1.05945 0.00597571 7.8712e-19)
(1.06319 0.00594851 5.56092e-18)
(1.06694 0.00590674 -6.40575e-18)
(1.07069 0.00585195 2.82085e-18)
(1.07443 0.00578641 -3.03779e-18)
(1.07814 0.00571495 2.03259e-19)
(1.04482 0.00353923 3.73912e-19)
(1.04834 0.00356478 -3.79537e-19)
(1.05192 0.00357925 3.07689e-18)
(1.05557 0.003583 -7.78597e-19)
(1.05926 0.00357668 3.14845e-18)
(1.06299 0.00356108 -2.38403e-18)
(1.06673 0.00353699 0)
(1.07046 0.00350528 -4.03324e-19)
(1.07419 0.00346727 4.05464e-19)
(1.07788 0.00342576 -8.13994e-19)
(1.04475 0.00117702 -3.7427e-19)
(1.04826 0.00118452 3.80127e-19)
(1.05184 0.00118881 -3.8542e-18)
(1.05548 0.0011899 7.80631e-19)
(1.05917 0.00118795 -1.57905e-18)
(1.06289 0.00118318 1.59487e-18)
(1.06662 0.0011758 0)
(1.07035 0.00116607 -4.04979e-19)
(1.07407 0.00115437 2.03611e-19)
(1.07775 0.00114156 1.02206e-18)
(1.1213 0.011269 0)
(1.01681 0.0146736 0)
(0.995045 0.0220962 0)
(1.00336 0.0316809 0)
(1.00512 0.0401613 0)
(1.00347 0.048497 0)
(1.0021 0.0573563 0)
(1.00099 0.0667298 0)
(0.999828 0.0766308 0)
(0.998657 0.0871665 0)
(0.997578 0.0984499 0)
(0.996684 0.110587 0)
(0.996084 0.123686 0)
(0.995913 0.137857 0)
(0.996341 0.153203 0)
(0.997574 0.169807 0)
(0.999867 0.187704 0)
(1.00358 0.206821 0)
(1.00922 0.226826 0)
(1.01656 0.246421 0)
(1.12493 0.00953813 0)
(1.01498 0.0156604 0)
(0.995487 0.0230952 0)
(1.00455 0.0321356 0)
(1.00605 0.0406671 0)
(1.0046 0.0491606 0)
(1.00368 0.0580777 0)
(1.00302 0.0674509 0)
(1.00235 0.0773124 0)
(1.00175 0.0877545 0)
(1.00132 0.0988734 0)
(1.00114 0.110759 0)
(1.00135 0.123499 0)
(1.00206 0.137181 0)
(1.00346 0.151878 0)
(1.00576 0.167636 0)
(1.0092 0.184442 0)
(1.01413 0.20213 0)
(1.02096 0.220144 0)
(1.02893 0.23694 0)
(1.12829 0.00828977 0)
(1.01433 0.0164109 0)
(0.995484 0.0238437 0)
(1.00522 0.0323866 0)
(1.00682 0.040934 0)
(1.00564 0.0495384 0)
(1.00511 0.0584667 0)
(1.00488 0.067792 0)
(1.00468 0.0775645 0)
(1.00461 0.0878611 0)
(1.00477 0.0987606 0)
(1.00525 0.110337 0)
(1.00617 0.122659 0)
(1.00765 0.135791 0)
(1.00987 0.149778 0)
(1.01303 0.164633 0)
(1.01734 0.180303 0)
(1.02311 0.196575 0)
(1.03063 0.212849 0)
(1.03927 0.22768 0)
(1.13156 0.00774894 0)
(1.01422 0.0166029 0)
(0.995377 0.0241201 0)
(1.0057 0.0324805 0)
(1.00752 0.0410345 0)
(1.00659 0.0496761 0)
(1.00642 0.058579 0)
(1.00658 0.0678298 0)
(1.00683 0.0774833 0)
(1.00724 0.0876034 0)
(1.00794 0.0982551 0)
(1.009 0.109498 0)
(1.01054 0.121386 0)
(1.01269 0.13396 0)
(1.0156 0.147246 0)
(1.01945 0.161232 0)
(1.02444 0.175842 0)
(1.0308 0.190854 0)
(1.03878 0.205696 0)
(1.04787 0.218996 0)
(1.13478 0.0074952 0)
(1.01435 0.0165692 0)
(0.995291 0.024148 0)
(1.00612 0.0324241 0)
(1.00817 0.0409448 0)
(1.00747 0.0495612 0)
(1.0076 0.0583989 0)
(1.00813 0.0675412 0)
(1.00877 0.0770394 0)
(1.00963 0.0869472 0)
(1.0108 0.0973176 0)
(1.01238 0.108197 0)
(1.01447 0.119625 0)
(1.01718 0.131628 0)
(1.02066 0.144212 0)
(1.02507 0.157351 0)
(1.03057 0.170954 0)
(1.03736 0.184803 0)