/*--------------------------------*- C++ -*----------------------------------*\
  =========                 |
  \\      /  F ield         | OpenFOAM: The Open Source CFD Toolbox
   \\    /   O peration     | Website:  https://openfoam.org
    \\  /    A nd           | Version:  6
     \\/     M anipulation  |
\*---------------------------------------------------------------------------*/
FoamFile
{
    version     2.0;
    format      ascii;
    class       volVectorField;
    location    "0.05";
    object      U;
}
// * * * * * * * * * * * * * * * * * * * * * * * * * * * * * * * * * * * * * //

dimensions      [0 1 -1 0 0 0 0];

internalField   nonuniform List<vector> 
5600
(
(0.947934 0.000105032 3.75765e-19)
(0.984789 0.000745824 -6.44785e-18)
(0.998479 0.00137679 6.43307e-18)
(0.994147 0.00209741 0)
(0.988756 0.00282919 0)
(0.984515 0.00353434 0)
(0.979748 0.00422757 -1.19992e-17)
(0.973934 0.00491019 1.19719e-17)
(0.967221 0.00557412 0)
(0.959732 0.00622115 0)
(0.951494 0.00686554 0)
(0.9425 0.00752967 0)
(0.93272 0.00824084 0)
(0.922093 0.00902926 -2.3623e-17)
(0.910519 0.00992648 2.35702e-17)
(0.897859 0.0109636 -4.7036e-17)
(0.883941 0.0121677 4.69311e-17)
(0.868566 0.0135527 0)
(0.851518 0.0151007 -3.65033e-19)
(0.8326 0.0167137 0)
(0.947837 0.000697367 -3.70526e-19)
(0.9853 0.00252345 6.35855e-18)
(0.998523 0.00430023 -6.34632e-18)
(0.993988 0.00629569 0)
(0.988684 0.00838303 0)
(0.984528 0.0104529 2.44971e-17)
(0.97981 0.0124854 6.95959e-23)
(0.974053 0.0144628 -7.39417e-19)
(0.967423 0.0163687 1.13883e-22)
(0.960038 0.0182146 -2.35746e-17)
(0.951926 0.0200434 0)
(0.943082 0.0219209 -4.77053e-17)
(0.933482 0.0239275 4.68825e-17)
(0.923068 0.026151 0)
(0.911748 0.0286819 0)
(0.899394 0.031608 0)
(0.885847 0.0350039 0)
(0.87092 0.0389065 -4.64454e-17)
(0.85441 0.0432622 4.67203e-17)
(0.836054 0.0478299 4.55797e-17)
(0.948134 0.0015072 0)
(0.985641 0.00430305 0)
(0.998607 0.00715005 0)
(0.993976 0.0104631 0)
(0.988738 0.0139096 2.34749e-17)
(0.984675 0.0173116 -2.41727e-17)
(0.980058 0.020642 -1.46285e-18)
(0.974437 0.0238673 -7.30341e-19)
(0.967988 0.0269624 2.33367e-17)
(0.960832 0.0299515 -2.18458e-17)
(0.952997 0.0329104 -1.45425e-18)
(0.944485 0.0359509 4.7194e-17)
(0.935277 0.0392065 -4.78494e-17)
(0.925327 0.0428209 1.44786e-18)
(0.914559 0.0469398 4.62642e-17)
(0.902863 0.0517031 -9.38363e-17)
(0.890101 0.0572288 -1.4421e-18)
(0.876108 0.0635751 4.60615e-17)
(0.860697 0.0706549 -1.43733e-18)
(0.843564 0.0780968 -7.17997e-19)
(0.948825 0.00222801 0)
(0.986028 0.00614089 -1.44845e-18)
(0.998731 0.0100691 0)
(0.994085 0.0146271 0)
(0.988949 0.0193704 0)
(0.98502 0.0240462 0)
(0.980573 0.0286043 1.44133e-18)
(0.97518 0.032995 2.44786e-17)
(0.969026 0.0371887 -2.3016e-17)
(0.962236 0.0412273 -1.4371e-18)
(0.954843 0.045223 2.87138e-18)
(0.946855 0.0493347 0)
(0.938266 0.0537472 -4.44196e-17)
(0.929046 0.0586558 4.43759e-17)
(0.919142 0.064255 4.5763e-17)
(0.908473 0.0707297 -4.57178e-17)
(0.896934 0.0782362 9.27747e-17)
(0.884393 0.0868532 -9.12572e-17)
(0.870701 0.0964679 1.42452e-18)
(0.855556 0.106607 1.42372e-18)
(0.949925 0.00293062 -5.62575e-18)
(0.986535 0.00799375 7.1029e-18)
(0.998892 0.0129879 -1.13591e-17)
(0.994286 0.0187292 -1.13545e-17)
(0.989315 0.0246977 2.26995e-17)
(0.985581 0.0305664 2.26902e-17)
(0.981381 0.0362535 -2.26807e-17)
(0.976313 0.041694 1.41695e-18)
(0.970573 0.0468601 1.41636e-18)
(0.964288 0.0518173 4.53048e-17)
(0.957498 0.0567171 -9.05713e-17)
(0.950222 0.0617655 1.4143e-18)
(0.942469 0.0671946 4.66613e-17)
(0.934232 0.0732435 1.41338e-18)
(0.925486 0.0801464 -4.37966e-17)
(0.916193 0.0881223 4.80141e-17)
(0.90629 0.097357 1.41157e-18)
(0.895689 0.107945 0)
(0.884308 0.11975 1.41036e-18)
(0.871894 0.132213 1.41016e-18)
(0.951446 0.00362707 5.50516e-18)
(0.98717 0.00982791 -5.56185e-18)
(0.99908 0.0158536 1.39065e-18)
(0.994567 0.022714 0)
(0.989827 0.0298237 2.22599e-17)
(0.986356 0.0367825 -2.22645e-17)
(0.982483 0.0434758 1.39182e-18)
(0.977838 0.049826 -4.73317e-17)
(0.972625 0.055814 -2.78495e-18)
(0.966976 0.0615344 8.9131e-17)
(0.960937 0.067181 -4.73602e-17)
(0.954541 0.0730044 -1.39323e-18)
(0.947816 0.0792775 -4.73792e-17)
(0.940782 0.0862738 -4.5995e-17)
(0.933452 0.0942545 8.78246e-17)
(0.925833 0.10346 8.64478e-17)
(0.917915 0.114093 -9.06474e-17)
(0.909666 0.126258 8.78755e-17)
(0.901089 0.139793 -1.79968e-16)
(0.892025 0.154068 8.79219e-17)
(0.953391 0.0043048 0)
(0.987939 0.011622 0)
(0.999293 0.0186352 -1.35962e-18)
(0.994914 0.0265315 2.17733e-17)
(0.990474 0.034676 -2.17925e-17)
(0.987334 0.0426008 -1.36324e-18)
(0.983868 0.050157 -1.36446e-18)
(0.979739 0.0572582 1.36566e-18)
(0.975157 0.0639008 1.36686e-18)
(0.970256 0.0702138 0)
(0.965092 0.0764336 4.51859e-17)
(0.959714 0.0828513 1.95539e-22)
(0.954171 0.0897723 -4.25217e-17)
(0.948516 0.0974923 -8.64912e-17)
(0.9428 0.106286 1.75881e-16)
(0.937083 0.116401 -8.66419e-17)
(0.931414 0.128044 8.80943e-17)
(0.925817 0.14132 -8.67927e-17)
(0.920391 0.156047 -8.82474e-17)
(0.915119 0.171539 8.69475e-17)
(0.955758 0.00492148 0)
(0.988861 0.0133698 1.32507e-18)
(0.999532 0.0213189 -2.12345e-17)
(0.995318 0.0301272 2.25979e-17)
(0.991249 0.0391726 -2.1303e-17)
(0.988513 0.0479225 2.40045e-17)
(0.985528 0.0561851 0)
(0.981994 0.063869 1.33788e-18)
(0.978126 0.0709923 0)
(0.974061 0.0777217 -1.3422e-18)
(0.969865 0.0843342 4.302e-17)
(0.965602 0.0911549 -4.30893e-17)
(0.961349 0.098511 -8.6318e-17)
(0.95719 0.106708 8.51061e-17)
(0.953219 0.116021 0)
(0.949546 0.12669 0)
(0.946281 0.138912 8.68767e-17)
(0.943508 0.152789 2.46678e-22)
(0.941422 0.168125 -8.71569e-17)
(0.940188 0.184209 8.86556e-17)
(0.958534 0.00531802 -4.46702e-18)
(0.990027 0.0151623 4.51719e-18)
(0.999795 0.0239957 0)
(0.995757 0.0334993 -1.94501e-18)
(0.992161 0.0432888 -2.07962e-17)
(0.989905 0.0527301 -2.21487e-17)
(0.98746 0.0615469 8.35819e-17)
(0.98458 0.069648 -4.31998e-17)
(0.981484 0.0770851 -4.19911e-17)
(0.978308 0.0840653 4.34069e-17)
(0.97513 0.0909035 -8.43853e-17)
(0.972033 0.0979507 1.69176e-16)
(0.96912 0.105545 1.99791e-22)
(0.966506 0.113989 -8.49956e-17)
(0.964326 0.123542 0)
(0.96274 0.134424 8.54064e-17)
(0.961916 0.146813 -1.71225e-16)
(0.961996 0.16081 8.58198e-17)
(0.963294 0.176217 0)
(0.96622 0.192243 0)
(0.96171 0.00533569 -5.58035e-18)
(0.991812 0.0172064 4.39065e-18)
(1.00005 0.0267787 0)
(0.996188 0.0366474 2.08292e-17)
(0.993268 0.047033 -2.02624e-17)
(0.991563 0.0570691 -4.06542e-17)
(0.989672 0.0663095 -3.7493e-23)
(0.987469 0.0746722 8.18297e-17)
(0.985173 0.0822628 -8.20923e-17)
(0.98291 0.0893373 4.11781e-17)
(0.980769 0.0962484 -8.26216e-17)
(0.978851 0.103369 8.28882e-17)
(0.977277 0.111039 -8.31564e-17)
(0.976189 0.119545 8.34258e-17)
(0.975757 0.129117 8.36967e-17)
(0.976185 0.139936 -8.3969e-17)
(0.977704 0.152143 0)
(0.980542 0.165846 -8.45175e-17)
(0.985099 0.180986 8.47943e-17)
(0.991938 0.19676 8.50484e-17)
(0.808824 0.0182276 0)
(0.776227 0.0204183 0)
(0.7365 0.0230487 4.24964e-17)
(0.687364 0.0262056 -2.30669e-17)
(0.625693 0.0299343 -2.52241e-17)
(0.547383 0.0341018 4.17295e-17)
(0.447872 0.0381035 -1.54983e-17)
(0.322626 0.0404176 3.49748e-17)
(0.169701 0.0380015 0)
(0.0474012 0.0215771 0)
(0.81305 0.0524039 -1.84394e-17)
(0.781284 0.0590186 -5.94333e-17)
(0.742417 0.0670155 -2.13756e-17)
(0.694331 0.0766518 2.32046e-17)
(0.633903 0.0880738 2.53706e-17)
(0.556975 0.10088 -5.59509e-17)
(0.458818 0.113258 4.67411e-17)
(0.334557 0.12055 -8.78523e-17)
(0.181046 0.113135 -1.00609e-17)
(0.0540119 0.0644932 6.43214e-17)
(0.822143 0.0855972 1.85156e-17)
(0.791946 0.096476 -1.98933e-17)
(0.754758 0.109663 4.29303e-17)
(0.708721 0.125563 4.66096e-17)
(0.650712 0.144426 -5.09695e-17)
(0.576474 0.165589 -2.81048e-17)
(0.480935 0.186072 3.13135e-17)
(0.358387 0.198126 -5.29788e-17)
(0.20367 0.185481 8.09218e-17)
(0.0672829 0.105994 -1.5293e-16)
(0.836547 0.11685 3.70576e-17)
(0.808547 0.131825 0)
(0.773742 0.149975 0)
(0.730636 0.171825 -4.66447e-17)
(0.676094 0.197744 5.10079e-17)
(0.605703 0.226818 2.16207e-21)
(0.513884 0.254936 0)
(0.393662 0.27138 7.07021e-17)
(0.237069 0.253615 -6.07427e-17)
(0.086872 0.144918 1.88395e-16)
(0.856034 0.144806 -3.69621e-17)
(0.83077 0.163542 0)
(0.79896 0.186284 8.56842e-17)
(0.759572 0.213636 0)
(0.709428 0.2461 5.08512e-17)
(0.643909 0.282543 5.60761e-17)
(0.556783 0.31778 0)
(0.439432 0.338274 1.409e-16)
(0.280291 0.315717 -2.01725e-17)
(0.112165 0.180174 -7.03621e-17)
(0.879892 0.168475 1.93917e-21)
(0.85781 0.190497 -1.57867e-16)
(0.829528 0.217323 -2.61585e-21)
(0.794541 0.249598 0)
(0.749607 0.287972 -5.05178e-17)
(0.689854 0.331133 -5.56872e-17)
(0.608269 0.372895 0)
(0.494266 0.39708 -1.39819e-16)
(0.33197 0.370151 -1.60017e-16)
(0.142313 0.210809 2.32411e-17)
(0.907092 0.187176 6.40404e-22)
(0.888525 0.21192 9.68361e-22)
(0.864212 0.242234 1.68678e-16)
(0.834207 0.278768 -1.09886e-21)
(0.795158 0.322338 -9.99991e-17)
(0.741915 0.371481 -1.10189e-16)
(0.666574 0.419087 -3.06608e-17)
(0.556311 0.446528 3.45403e-17)
(0.390362 0.415657 1.18504e-16)
(0.176226 0.23604 2.29224e-16)
(0.93643 0.200564 -1.60822e-21)
(0.921542 0.227441 7.7225e-17)
(0.901539 0.260599 -1.66522e-16)
(0.876965 0.300692 -4.516e-17)
(0.844304 0.348702 2.46604e-16)
(0.798137 0.403044 1.08638e-16)
(0.729597 0.455751 -1.20821e-16)
(0.623428 0.485956 0)
(0.453507 0.451552 3.88421e-17)
(0.212656 0.255391 -4.05209e-16)
(0.9666 0.208668 -1.09086e-21)
(0.955085 0.236943 -7.60288e-17)
(0.939555 0.272283 3.77926e-21)
(0.920674 0.315254 -8.88454e-17)
(0.89474 0.366993 9.69788e-17)
(0.856172 0.425826 5.33712e-17)
(0.795112 0.48301 5.93184e-17)
(0.69364 0.515627 -3.33492e-17)
(0.519666 0.478139 3.80472e-17)
(0.250359 0.268898 1.76167e-16)
(0.995426 0.212438 -6.95559e-17)
(0.986435 0.241257 -7.46277e-17)
(0.975619 0.278221 8.03986e-17)
(0.962624 0.323538 8.71193e-17)
(0.943849 0.378347 -1.90109e-16)
(0.913669 0.440842 0)
(0.861043 0.501541 0)
(0.764848 0.535764 -3.25987e-17)
(0.5863 0.495311 3.71412e-17)
(0.287334 0.27622 0)
(1.02401 0.220913 6.80234e-17)
(1.01699 0.251038 7.30661e-17)
(1.0109 0.288751 0)
(1.00327 0.335109 -8.5461e-17)
(0.990953 0.390534 0)
(0.967859 0.452577 -1.02824e-16)
(0.921425 0.511131 -5.71918e-17)
(0.827536 0.541375 -6.43825e-17)
(0.642724 0.496158 -1.47143e-16)
(0.317589 0.273493 1.70703e-16)
(1.05558 0.227186 1.75547e-21)
(1.05327 0.258116 -1.48597e-16)
(1.0523 0.295848 2.04346e-21)
(1.05031 0.342199 8.69458e-17)
(1.04413 0.396736 0)
(1.02673 0.456122 1.04682e-16)
(0.983645 0.509605 0)
(0.887967 0.532697 1.3123e-16)
(0.693166 0.480758 1.6638e-20)
(0.342258 0.260289 -1.74202e-16)
(1.08804 0.228398 7.01488e-17)
(1.09108 0.259148 -7.53664e-17)
(1.0955 0.296265 2.43894e-16)
(1.09925 0.341639 -8.82307e-17)
(1.09888 0.39421 -9.64315e-17)
(1.08627 0.449882 -5.31435e-17)
(1.04507 0.497406 2.97644e-21)
(0.945844 0.51286 6.66836e-17)
(0.739688 0.454577 2.67032e-16)
(0.363331 0.240739 4.43187e-17)
(1.12074 0.223808 -1.41968e-16)
(1.12908 0.253542 0)
(1.1389 0.289266 -4.21454e-21)
(1.14826 0.332657 8.93186e-17)
(1.15324 0.382187 2.44124e-16)
(1.14458 0.433225 5.38247e-17)
(1.1041 0.474313 1.19897e-16)
(1.00003 0.482468 -1.01388e-16)
(0.781539 0.419429 -1.93475e-16)
(0.380638 0.216604 1.79917e-16)
(1.15286 0.213164 7.16561e-17)
(1.16628 0.24116 7.69942e-17)
(1.18132 0.274723 -1.66163e-16)
(1.19597 0.315194 -4.51018e-17)
(1.20567 0.360692 -1.97256e-16)
(1.19994 0.406256 -1.63142e-16)
(1.15881 0.440545 -2.42332e-16)
(1.04844 0.441972 1.36674e-16)
(0.816788 0.376256 0)
(0.39337 0.1889 -2.04854e-16)
(1.18333 0.196332 1.0822e-16)
(1.20148 0.221949 0)
(1.22139 0.25265 0)
(1.24084 0.289381 0)
(1.25447 0.33003 0)
(1.25053 0.369507 1.09579e-16)
(1.20731 0.396909 1.22103e-16)
(1.08929 0.392482 0)
(0.844031 0.326442 0)
(0.40108 0.158707 -9.18367e-17)
(1.21103 0.173495 -3.62269e-17)
(1.23344 0.196165 -9.32979e-22)
(1.2577 0.223374 -4.20131e-17)
(1.28128 0.255669 4.56193e-17)
(1.29795 0.29084 -4.98945e-17)
(1.29462 0.323881 1.37599e-16)
(1.24796 0.344627 -3.06708e-17)
(1.12122 0.335535 6.92168e-17)
(0.862426 0.271664 -1.98327e-17)
(0.403656 0.127136 9.23477e-17)
(1.23488 0.145185 7.25679e-17)
(1.26099 0.164421 -3.89903e-17)
(1.28896 0.187592 0)
(1.31589 0.214888 -4.56958e-17)
(1.33461 0.244143 0)
(1.33071 0.270641 -5.51354e-17)
(1.27944 0.285237 -3.07219e-17)
(1.14326 0.272896 3.46698e-17)
(0.87159 0.213687 0)
(0.401236 0.0952477 -1.15663e-17)
(1.25405 0.112204 -5.43656e-17)
(1.28313 0.127626 3.89466e-17)
(1.31407 0.146321 0)
(1.3435 0.168197 0)
(1.36331 0.191281 4.9918e-17)
(1.35783 0.211334 -2.75342e-17)
(1.3011 0.22048 -3.06841e-17)
(1.15524 0.206435 -6.92582e-17)
(0.871835 0.154295 3.96882e-17)
(0.39425 0.0640414 -5.19731e-17)
(1.26675 0.0757507 5.41626e-17)
(1.29821 0.0870147 -6.68737e-22)
(1.33153 0.10082 -2.09347e-17)
(1.36284 0.116892 0)
(1.38306 0.133575 -2.48596e-17)
(1.37533 0.147313 -1.37089e-17)
(1.31258 0.151794 3.81945e-17)
(1.15703 0.137752 8.61916e-18)
(0.863186 0.0951762 -4.4445e-17)
(0.382806 0.0344576 5.1724e-17)
(1.03218 0.197366 -4.18742e-16)
(1.0606 0.20208 1.03579e-16)
(1.08899 0.202593 0)
(1.1174 0.19815 1.02453e-16)
(1.14526 0.188502 -2.95381e-23)
(1.1716 0.173529 -1.56655e-18)
(1.19546 0.153357 7.79214e-19)
(1.21594 0.128414 -5.00486e-17)
(1.23239 0.0993585 4.98905e-17)
(1.24307 0.0672031 -2.46976e-17)
(1.03926 0.183012 2.08835e-16)
(1.06475 0.18546 0)
(1.08991 0.184523 0)
(1.11494 0.179448 1.00719e-16)
(1.13948 0.169966 1.57472e-18)
(1.16264 0.155972 -7.82453e-19)
(1.18357 0.137571 7.78591e-19)
(1.2015 0.115122 4.88532e-17)
(1.2159 0.0891907 -4.9476e-17)
(1.22518 0.0605771 2.46854e-17)
(1.04605 0.171203 0)
(1.0686 0.171813 -1.03218e-16)
(1.09078 0.169446 1.02283e-16)
(1.11273 0.163642 -1.01475e-16)
(1.13425 0.154146 0)
(1.15452 0.140866 -7.82733e-19)
(1.17283 0.123894 -9.89439e-17)
(1.18848 0.103531 0)
(1.20107 0.0802686 0)
(1.20916 0.0547381 -2.47131e-17)
(1.05194 0.16043 0)
(1.07201 0.159552 1.01963e-21)
(1.09156 0.156066 -1.02199e-16)
(1.11079 0.149722 1.01436e-16)
(1.12959 0.140289 7.87369e-19)
(1.14727 0.127687 -1.01019e-16)
(1.16321 0.111994 -3.37829e-22)
(1.17684 0.0934628 0)
(1.18782 0.0725134 0)
(1.19487 0.0496524 0)
(1.05672 0.15038 -1.03825e-16)
(1.07467 0.148393 2.0589e-16)
(1.09199 0.144103 7.97764e-19)
(1.10887 0.137401 -1.02191e-16)
(1.12531 0.128102 -7.87379e-19)
(1.14072 0.116144 -1.0027e-16)
(1.15459 0.101598 1.50549e-16)
(1.16644 0.0846805 -3.88702e-19)
(1.17599 0.0657472 -4.92392e-17)
(1.18214 0.04521 -2.47694e-17)
(1.06044 0.140963 2.07259e-16)
(1.07654 0.138186 -1.02809e-16)
(1.09193 0.133356 1.02031e-16)
(1.10683 0.126461 1.00568e-16)
(1.12125 0.117362 1.02362e-16)
(1.13471 0.10602 9.9521e-17)
(1.1468 0.0925077 -4.99539e-17)
(1.15712 0.0770123 -3.89029e-19)
(1.16543 0.059839 3.8781e-19)
(1.17077 0.0413269 2.47973e-17)
(1.06324 0.132136 -1.03839e-16)
(1.07768 0.128795 -1.02271e-16)
(1.09141 0.123629 -1.01948e-16)
(1.10461 0.116678 -1.01323e-16)
(1.11731 0.107843 -1.00001e-16)
(1.12912 0.0971027 9.87712e-17)
(1.13969 0.0845342 -4.92039e-17)
(1.14869 0.0703037 0)
(1.15593 0.0546747 9.94545e-17)
(1.16059 0.0379312 0)
(1.06523 0.123871 0)
(1.0782 0.120133 1.02537e-16)
(1.09048 0.114781 -1.01864e-16)
(1.10222 0.107878 7.91277e-19)
(1.11346 0.0993547 -1.02364e-16)
(1.12386 0.089206 -1.00373e-16)
(1.13314 0.0775083 5.07972e-17)
(1.14102 0.0644125 -4.988e-17)
(1.14735 0.0501478 -9.95552e-17)
(1.15143 0.034955 0)
(1.06653 0.116144 -1.03046e-16)
(1.0782 0.112136 0)
(1.08921 0.106707 1.01781e-16)
(1.09969 0.0999283 1.02037e-16)
(1.10967 0.0917499 6.78035e-23)
(1.11888 0.0821778 9.96231e-17)
(1.12706 0.0712875 0)
(1.13399 0.0592157 4.99218e-17)
(1.13956 0.0461635 5.00226e-17)
(1.14313 0.0323369 -2.50762e-17)
(1.06727 0.108931 1.02853e-16)
(1.07778 0.104752 -1.02266e-16)
(1.08767 0.0993262 1.01698e-16)
(1.09707 0.0927236 -1.00418e-16)
(1.10597 0.0849089 2.00008e-16)
(1.11415 0.0758945 -9.88723e-17)
(1.1214 0.0657535 -7.82467e-19)
(1.12752 0.0546101 -3.9034e-19)
(1.13243 0.0426407 -4.94889e-17)
(1.13558 0.0300235 2.49099e-17)
(1.06754 0.102206 0)
(1.07702 0.0979328 1.02131e-16)
(1.08593 0.0925682 -1.01615e-16)
(1.09438 0.0861769 -7.90387e-19)
(1.10235 0.0787335 -9.92175e-17)
(1.10965 0.0702545 -7.84974e-19)
(1.1161 0.0608089 -7.82938e-19)
(1.12154 0.0505092 7.81347e-19)
(1.1259 0.0395111 4.9929e-17)
(1.12869 0.0279691 2.49383e-17)
(1.06741 0.0959394 1.02869e-16)
(1.07599 0.0916324 -3.98427e-19)
(1.08404 0.0863717 0)
(1.09166 0.0802142 0)
(1.09883 0.0731418 7.87442e-19)
(1.10537 0.065173 -5.18255e-17)
(1.11114 0.0563723 1.01728e-23)
(1.116 0.0468413 5.0439e-17)
(1.11988 0.0367173 3.90469e-19)
(1.12238 0.0261352 -2.49665e-17)
(1.06698 0.0901014 -1.02278e-16)
(1.07476 0.0858082 -1.01862e-16)
(1.08205 0.0806818 -1.01448e-16)
(1.08894 0.0747713 -7.89793e-19)
(1.09541 0.0680639 1.03934e-23)
(1.1013 0.0605789 5.02721e-17)
(1.10649 0.0523759 7.83915e-19)
(1.11085 0.0435463 9.25438e-23)
(1.11433 0.0342114 0)
(1.11657 0.0244893 0)
(1.06629 0.0846622 -1.02485e-16)
(1.07336 0.0804194 2.03854e-16)
(1.08 0.0754488 1.01366e-16)
(1.08626 0.069792 0)
(1.09212 0.0634398 -1.00007e-16)
(1.09744 0.0564118 4.95033e-17)
(1.10212 0.0487623 0)
(1.10605 0.0405736 -5.05239e-17)
(1.1092 0.031953 -2.46494e-17)
(1.11122 0.023004 0)
(1.0654 0.0795921 1.02295e-16)
(1.07186 0.0754279 -1.01992e-16)
(1.07791 0.0706279 0)
(1.08361 0.0652265 1.00229e-16)
(1.08894 0.0592175 1.00796e-16)
(1.09378 0.0526198 -1.00612e-16)
(1.09802 0.045483 -4.94473e-17)
(1.10159 0.0378808 0)
(1.10444 0.0299083 2.5066e-17)
(1.10629 0.0216566 0)
(1.06436 0.0748625 1.01707e-16)
(1.07027 0.0707984 0)
(1.07581 0.0661785 0)
(1.08103 0.0610308 -1.00191e-16)
(1.0859 0.0553513 -8.59024e-24)
(1.09031 0.0491581 4.87505e-17)
(1.09418 0.0424961 5.10485e-17)
(1.09743 0.0354315 -3.92317e-19)
(1.10002 0.0280485 1.9603e-19)
(1.10172 0.0204277 1.95942e-19)
(1.06321 0.0704461 -2.03037e-16)
(1.06863 0.0664981 1.01328e-16)
(1.07372 0.0620637 7.89973e-19)
(1.07852 0.0571657 -7.88609e-19)
(1.08298 0.0518013 -5.03985e-17)
(1.08702 0.0459878 0)
(1.09057 0.0397659 0)
(1.09354 0.0331949 5.02591e-17)
(1.09592 0.0263495 0)
(1.09748 0.0193009 0)
(1.06196 0.0663171 1.01726e-16)
(1.06697 0.0624967 -1.0159e-16)
(1.07166 0.0582504 7.89327e-19)
(1.07609 0.0535962 -1.0248e-16)
(1.0802 0.0485324 5.11863e-17)
(1.08391 0.0430753 0)
(1.08717 0.0372616 -7.86326e-19)
(1.08991 0.0311444 -4.99085e-17)
(1.09211 0.0247903 1.96429e-19)
(1.09356 0.0182626 1.96389e-19)
(1.06066 0.0624514 -1.01538e-16)
(1.06529 0.0587669 3.94777e-19)
(1.06964 0.0547088 -1.00952e-16)
(1.07374 0.0502913 1.00865e-16)
(1.07754 0.0455137 7.87482e-19)
(1.08098 0.0403909 -7.87099e-19)
(1.08399 0.0349562 4.95693e-17)
(1.08652 0.0292572 7.86627e-19)
(1.08856 0.0233533 0)
(1.08991 0.0173007 0)
(1.05932 0.0588267 -3.94106e-19)
(1.06363 0.0552833 1.01324e-16)
(1.06767 0.0514119 1.00869e-16)
(1.07148 0.0472236 -1.01614e-16)
(1.07501 0.0427179 5.11868e-17)
(1.0782 0.0379088 0)
(1.081 0.0328265 -5.03872e-17)
(1.08335 0.0275136 -3.93642e-19)
(1.08525 0.0220232 3.93656e-19)
(1.08652 0.0164054 0)
(1.05797 0.0554221 3.93858e-19)
(1.06198 0.0520231 -1.01192e-16)
(1.06576 0.0483358 -1.00786e-16)
(1.06931 0.0443683 1.00788e-16)
(1.0726 0.040121 -1.00799e-16)
(1.07558 0.0356065 0)
(1.07819 0.0308522 0)
(1.08039 0.0258965 -3.93975e-19)
(1.08216 0.0207868 -2.50226e-17)
(1.08337 0.0155678 2.54211e-17)
(1.0566 0.0522187 1.0019e-16)
(1.06037 0.0489655 -1.00273e-16)
(1.06391 0.0454586 1.00704e-16)
(1.06724 0.0417038 -5.11619e-17)
(1.07032 0.0377017 7.8752e-19)
(1.0731 0.0334641 0)
(1.07555 0.0290157 -5.04493e-17)
(1.07761 0.0243911 -3.94308e-19)
(1.07928 0.0196326 2.56398e-17)
(1.08043 0.0147806 -2.52529e-17)
(1.05525 0.0491989 0)
(1.05879 0.0460918 1.00534e-16)
(1.06212 0.0427609 -1.00621e-16)
(1.06525 0.0392105 5.11424e-17)
(1.06815 0.0354413 4.96123e-17)
(1.07077 0.0314642 0)
(1.07307 0.0273015 4.96917e-17)
(1.07502 0.0229844 3.94647e-19)
(1.0766 0.0185509 1.97433e-19)
(1.07769 0.0140373 1.97515e-19)
(1.05392 0.0463467 3.91453e-19)
(1.05726 0.0433847 -3.922e-19)
(1.0604 0.0402253 1.00539e-16)
(1.06336 0.0368711 7.86502e-19)
(1.0661 0.0333231 -5.03999e-17)
(1.06857 0.0295913 4.96704e-17)
(1.07074 0.0256959 -4.97223e-17)
(1.07259 0.0216651 2.40935e-17)
(1.07409 0.017533 5.92899e-19)
(1.07514 0.0133324 -1.97742e-19)
(1.05261 0.0436474 9.96372e-17)
(1.05577 0.040829 3.91688e-19)
(1.05876 0.0378361 0)
(1.06156 0.0346702 0)
(1.06416 0.0313324 2.12382e-23)
(1.0665 0.0278319 -5.04757e-17)
(1.06856 0.0241871 1.00296e-16)
(1.07031 0.0204233 3.95324e-19)
(1.07174 0.0165715 1.97837e-19)
(1.07276 0.012661 1.2868e-17)
(1.05133 0.0410875 -9.94542e-17)
(1.05434 0.0384106 -3.91176e-19)
(1.05718 0.0355792 -5.01872e-17)
(1.05985 0.032594 0)
(1.06232 0.029456 5.04001e-17)
(1.06455 0.026174 0)
(1.06651 0.0227645 -4.97836e-17)
(1.06819 0.0192505 -2.65082e-17)
(1.06956 0.0156598 3.96077e-19)
(1.07054 0.0120191 9.67146e-24)
(1.05009 0.038655 -1.0005e-16)
(1.05297 0.036117 3.90666e-19)
(1.05568 0.0334419 5.01461e-17)
(1.05823 0.0306301 -7.85598e-19)
(1.06059 0.0276824 7.87504e-19)
(1.06272 0.024607 0)
(1.06459 0.0214189 -7.90701e-19)
(1.0662 0.018139 3.95984e-19)
(1.06751 0.0147923 1.98243e-19)
(1.06847 0.0114029 -1.25007e-17)
(1.0489 0.0363386 9.90895e-17)
(1.05165 0.0339366 3.90156e-19)
(1.05425 0.031413 -7.82889e-19)
(1.0567 0.0287675 1.5706e-18)
(1.05895 0.0260012 -7.87504e-19)
(1.06099 0.0231215 0)
(1.0628 0.0201422 -2.53181e-17)
(1.06434 0.0170821 0)
(1.06561 0.0139638 0)
(1.06654 0.0108094 1.27138e-17)
(1.04775 0.0341281 4.96478e-17)
(1.0504 0.031859 0)
(1.0529 0.029482 0)
(1.05525 0.0269963 -7.84994e-19)
(1.05741 0.0244031 -4.96126e-17)
(1.05938 0.0217091 0)
(1.06111 0.018927 2.61254e-17)
(1.0626 0.0160738 -1.18996e-18)
(1.06383 0.0131701 3.97297e-19)
(1.06474 0.0102357 -1.27285e-17)
(1.04665 0.0320142 -9.95012e-17)
(1.0492 0.029875 3.8914e-19)
(1.05161 0.0276398 7.81606e-19)
(1.05388 0.0253077 -5.17897e-17)
(1.05597 0.0228797 1.02375e-16)
(1.05786 0.0203624 -7.90003e-19)
(1.05954 0.017767 2.53494e-17)
(1.06098 0.015109 -3.96987e-19)
(1.06217 0.0124072 1.98854e-19)
(1.06307 0.0096794 1.99112e-19)
(1.0456 0.0299885 4.908e-17)
(1.04807 0.0279759 3.88634e-19)
(1.0504 0.0258779 0)
(1.05259 0.0236935 4.94166e-17)
(1.05461 0.0214238 -4.96125e-17)
(1.05644 0.0190746 2.52884e-17)
(1.05807 0.0166563 -2.17301e-25)
(1.05946 0.0141831 -3.97324e-19)
(1.06063 0.0116716 3.98115e-19)
(1.06151 0.00913847 0)
(1.0446 0.028043 -3.85749e-19)
(1.047 0.0261539 3.88128e-19)
(1.04926 0.0241889 0)
(1.05138 0.0221468 -5.01815e-17)
(1.05334 0.0200286 7.87496e-19)
(1.05512 0.0178399 -5.13843e-17)
(1.0567 0.01559 -2.53806e-17)
(1.05806 0.0132918 -2.58481e-17)
(1.05919 0.0109605 1.99263e-19)
(1.06006 0.00861101 1.99573e-19)
(1.04366 0.0261707 -4.96709e-17)
(1.04599 0.0244021 5.00033e-17)
(1.04819 0.0225658 0)
(1.05025 0.0206609 5.09459e-17)
(1.05215 0.0186882 -7.87498e-19)
(1.05388 0.0166528 2.53053e-17)
(1.05542 0.0145634 0)
(1.05675 0.0124316 2.5074e-17)
(1.05786 0.010271 5.98402e-19)
(1.05872 0.00809541 -1.99804e-19)
(1.04277 0.024365 4.88118e-17)
(1.04504 0.0227138 3.87081e-19)
(1.04718 0.0210025 7.79046e-19)
(1.04919 0.0192299 -7.83481e-19)
(1.05105 0.0173971 0)
(1.05273 0.0155087 2.53137e-17)
(1.05423 0.0135725 -2.62061e-17)
(1.05553 0.0115991 2.5892e-17)
(1.05662 0.00960086 1.99674e-19)
(1.05747 0.00759024 1.30023e-17)
(1.04193 0.0226198 -4.91065e-17)
(1.04415 0.0210832 -4.94869e-17)
(1.04624 0.0194931 0)
(1.0482 0.0178485 0)
(1.05002 0.0161504 0)
(1.05167 0.0144031 -5.06441e-17)
(1.05313 0.0126135 7.94613e-19)
(1.05441 0.0107914 -2.67114e-17)
(1.05548 0.0089479 3.99759e-19)
(1.05632 0.00709424 -1.28171e-17)
(1.04115 0.0209296 -3.82906e-19)
(1.04332 0.0195048 3.86115e-19)
(1.04537 0.0180326 -7.77768e-19)
(1.04729 0.0165119 7.82872e-19)
(1.04907 0.0149438 7.87485e-19)
(1.05068 0.0133321 -7.91575e-19)
(1.05212 0.0116833 2.46482e-17)
(1.05337 0.010006 3.9902e-19)
(1.05442 0.00831023 4.00172e-19)
(1.05526 0.0066063 0)
(1.04042 0.0192893 4.85458e-17)
(1.04255 0.0179736 3.85614e-19)
(1.04456 0.0166161 2.48682e-17)
(1.04644 0.0152156 7.82564e-19)
(1.04819 0.0137731 -3.63645e-24)
(1.04977 0.0122922 -7.91837e-19)
(1.05118 0.0107787 0)
(1.05241 0.00924033 0)
(1.05346 0.00768616 1.28187e-17)
(1.05428 0.00612543 0)
(1.03975 0.0176939 3.81556e-19)
(1.04184 0.0164851 -3.85114e-19)
(1.04381 0.0152393 -2.56243e-17)
(1.04567 0.0139555 3.49321e-24)
(1.04738 0.0126347 7.8748e-19)
(1.04894 0.0112802 2.53472e-17)
(1.05033 0.00989707 2.54747e-17)
(1.05154 0.00849237 -3.99697e-19)
(1.05257 0.00707417 -1.2431e-17)
(1.05339 0.00565078 0)
(1.03912 0.0161391 -3.80864e-19)
(1.04118 0.0150348 3.84615e-19)
(1.04313 0.013898 -2.48274e-17)
(1.04496 0.0127279 0)
(1.04664 0.0115253 0)
(1.04817 0.0102931 0)
(1.04955 0.00903594 -2.54905e-17)
(1.05074 0.00776015 -1.32013e-17)
(1.05176 0.00647287 4.01416e-19)
(1.05258 0.00518157 0)
(1.03856 0.0146207 -3.80173e-19)
(1.04059 0.0136188 3.84117e-19)
(1.04251 0.0125886 2.40318e-17)
(1.04431 0.0115293 3.34104e-24)
(1.04597 0.0104416 7.8747e-19)
(1.04748 0.00932812 0)
(1.04884 0.00819306 7.97067e-19)
(1.05002 0.0070419 1.1611e-17)
(1.05103 0.00588104 -1.24568e-17)
(1.05184 0.00471711 0)
(1.03804 0.0131347 0)
(1.04005 0.0122334 2.45516e-17)
(1.04195 0.0113076 2.47866e-17)
(1.04372 0.0103565 -7.81342e-19)
(1.04537 0.00938086 7.87465e-19)
(1.04686 0.00838289 0)
(1.0482 0.00736633 1.35585e-17)
(1.04937 0.00633601 -1.20217e-18)
(1.05037 0.00529754 1.30731e-17)
(1.05118 0.00425679 2.01673e-19)
(1.03758 0.0116775 -3.78799e-19)
(1.03957 0.0108751 -2.41368e-17)
(1.04145 0.0100517 -2.39923e-17)
(1.0432 0.00920658 -3.21869e-24)
(1.04483 0.00834036 -7.87459e-19)
(1.04631 0.00745504 0)
(1.04763 0.00655385 -1.35669e-17)
(1.04879 0.00564099 4.01067e-19)
(1.04978 0.00472135 6.03999e-19)
(1.05059 0.00380005 -2.01909e-19)
(1.03717 0.0102456 3.78115e-19)
(1.03914 0.0095406 -3.82629e-19)
(1.041 0.00881784 0)
(1.04274 0.00807667 0)
(1.04435 0.00731763 0)
(1.04582 0.00654244 -1.26945e-17)
(1.04713 0.00575385 -1.27767e-17)
(1.04828 0.00495548 -4.01406e-19)
(1.04926 0.00415152 2.01544e-19)
(1.05007 0.00334639 2.02145e-19)
(1.03682 0.00883557 -3.77432e-19)
(1.03877 0.00822671 3.82134e-19)
(1.04062 0.00760309 1.31355e-17)
(1.04234 0.00696415 -1.32672e-17)
(1.04394 0.00631033 0)
(1.04539 0.00564306 2.53974e-17)
(1.04669 0.00496466 1.27846e-17)
(1.04784 0.00427819 6.02626e-18)
(1.04882 0.00358716 -6.25431e-18)
(1.04962 0.00289535 2.02382e-19)
(1.03651 0.00744435 -1.24328e-17)
(1.03846 0.00693051 1.25941e-17)
(1.04029 0.00640475 -1.23526e-17)
(1.042 0.00586655 2.41836e-17)
(1.04359 0.00531626 7.87438e-19)
(1.04503 0.00475502 -2.54058e-17)
(1.04632 0.00418474 6.39626e-18)
(1.04746 0.00360792 -6.8356e-18)
(1.04843 0.00302747 6.86672e-18)
(1.04924 0.00244652 0)
(1.03626 0.00606887 1.24104e-17)
(1.03819 0.00564917 -3.81151e-19)
(1.04002 0.00522022 -7.71404e-19)
(1.04172 0.00478154 -1.16971e-17)
(1.04329 0.00433336 0)
(1.04473 0.00387655 1.2707e-17)
(1.04602 0.00341261 -7.20024e-18)
(1.04715 0.00294355 -5.2317e-18)
(1.04812 0.00247167 -6.06519e-19)
(1.04892 0.00199948 2.02857e-19)
(1.03606 0.00470623 -1.20127e-17)
(1.03798 0.00438001 -1.97464e-24)
(1.0398 0.00404705 7.7077e-19)
(1.0415 0.0037069 -1.559e-18)
(1.04306 0.00335965 1.57484e-18)
(1.04449 0.00300594 -7.15006e-18)
(1.04577 0.0026469 5.60365e-18)
(1.0469 0.00228401 3.62505e-18)
(1.04786 0.00191903 3.84529e-18)
(1.04866 0.00155387 -2.03096e-19)
(1.03591 0.00335352 1.16164e-17)
(1.03783 0.00312027 -1.17851e-17)
(1.03964 0.00288262 0)
(1.04133 0.00264018 0)
(1.04289 0.00239293 7.8741e-19)
(1.04431 0.00214127 5.56298e-18)
(1.04559 0.00188596 -6.40812e-18)
(1.04671 0.00162802 2.8219e-18)
(1.04768 0.00136867 -3.03893e-18)
(1.04847 0.00110925 2.03335e-19)
(1.03581 0.00200787 3.74049e-19)
(1.03772 0.0018671 -3.79676e-19)
(1.03953 0.00172417 3.07802e-18)
(1.04122 0.00157875 -7.78884e-19)
(1.04278 0.00143073 3.14961e-18)
(1.0442 0.00128031 -2.38492e-18)
(1.04547 0.00112791 0)
(1.04659 0.000974091 -4.03474e-19)
(1.04755 0.000819554 4.05615e-19)
(1.04835 0.000665056 -8.14298e-19)
(1.03576 0.000667606 -3.74408e-19)
(1.03767 0.000619852 3.80266e-19)
(1.03948 0.000571711 -3.85561e-18)
(1.04116 0.000523024 7.80918e-19)
(1.04272 0.000473723 -1.57963e-18)
(1.04414 0.000423844 1.59546e-18)
(1.04541 0.000373492 0)
(1.04653 0.000322824 -4.0513e-19)
(1.04749 0.000272031 2.03686e-19)
(1.04829 0.000221331 1.02244e-18)
(0.964948 0.00595234 0)
(0.994139 0.0185232 0)
(1.00015 0.0282921 0)
(0.996579 0.0382985 0)
(0.994475 0.0489977 0)
(0.993227 0.0593377 0)
(0.991747 0.0687525 0)
(0.990089 0.0771684 0)
(0.988455 0.084721 0)
(0.986951 0.0916838 0)
(0.985665 0.0984185 0)
(0.984699 0.1053 0)
(0.984178 0.112662 0)
(0.984248 0.12077 0)
(0.985088 0.129829 0)
(0.986921 0.139983 0)
(0.990029 0.151316 0)
(0.994822 0.163819 0)
(1.00196 0.177242 0)
(1.01176 0.190203 0)
(0.96796 0.006821 0)
(0.995474 0.0186395 0)
(1.00029 0.0286221 0)
(0.997075 0.0390899 0)
(0.995507 0.0499787 0)
(0.994608 0.060397 0)
(0.993489 0.0698568 0)
(0.992284 0.0782583 0)
(0.991178 0.085719 0)
(0.990263 0.0925097 0)
(0.989624 0.0989871 0)
(0.989367 0.105514 0)
(0.989613 0.112406 0)
(0.990507 0.119906 0)
(0.99223 0.128186 0)
(0.995001 0.137346 0)
(0.9991 0.147405 0)
(1.00492 0.158229 0)
(1.01296 0.169282 0)
(1.02294 0.178886 0)
(0.971101 0.00738716 0)
(0.996324 0.0187042 0)
(1.00051 0.0288471 0)
(0.997691 0.0396731 0)
(0.996528 0.0506998 0)
(0.995958 0.061156 0)
(0.995213 0.070618 0)
(0.994453 0.0789617 0)
(0.993844 0.0862885 0)
(0.99347 0.0928661 0)
(0.993415 0.099046 0)
(0.993781 0.10518 0)
(0.994688 0.111564 0)
(0.996275 0.118419 0)
(0.998711 0.125887 0)
(1.0022 0.134027 0)
(1.00699 0.142808 0)
(1.0134 0.152026 0)
(1.0218 0.161084 0)
(1.03183 0.168474 0)
(0.974303 0.00764338 0)
(0.996959 0.0188325 0)
(1.00072 0.029062 0)
(0.998323 0.0400744 0)
(0.997509 0.0511864 0)
(0.997254 0.0616569 0)
(0.996879 0.0710848 0)
(0.996543 0.0793321 0)
(0.996396 0.086491 0)
(0.996516 0.0928269 0)
(0.996985 0.0986863 0)
(0.9979 0.104411 0)
(0.999373 0.110282 0)
(1.00154 0.1165 0)
(1.00454 0.123182 0)
(1.00857 0.130362 0)
(1.01384 0.137975 0)
(1.02057 0.145803 0)
(1.02907 0.153285 0)
(1.039 0.159088 0)
(0.97753 0.00774418 0)
(0.997492 0.0189076 0)
(1.00088 0.0291734 0)
(0.998923 0.0402715 0)