/*--------------------------------*- C++ -*----------------------------------*\
  =========                 |
  \\      /  F ield         | OpenFOAM: The Open Source CFD Toolbox
   \\    /   O peration     | Website:  https://openfoam.org
    \\  /    A nd           | Version:  6
     \\/     M anipulation  |
\*---------------------------------------------------------------------------*/
FoamFile
{
    version     2.0;
    format      ascii;
    class       volScalarField;
    location    "1.35";
    object      p;
}
// * * * * * * * * * * * * * * * * * * * * * * * * * * * * * * * * * * * * * //

dimensions      [0 2 -2 0 0 0 0];

internalField   nonuniform List<scalar> 
5600
(
993.93
995.607
996.856
996.87
996.73
996.711
996.731
996.744
996.75
996.757
996.765
996.774
996.783
996.794
996.805
996.818
996.831
996.847
996.863
996.882
993.859
995.638
996.881
996.87
996.728
996.712
996.732
996.744
996.75
996.756
996.764
996.773
996.783
996.793
996.804
996.817
996.83
996.845
996.862
996.88
993.819
995.649
996.892
996.87
996.726
996.712
996.732
996.742
996.748
996.754
996.762
996.771
996.78
996.79
996.801
996.812
996.825
996.84
996.855
996.872
993.775
995.655
996.901
996.87
996.724
996.71
996.73
996.74
996.745
996.751
996.758
996.766
996.774
996.784
996.794
996.805
996.816
996.829
996.843
996.858
993.722
995.661
996.911
996.87
996.721
996.708
996.727
996.737
996.741
996.746
996.752
996.759
996.767
996.775
996.784
996.793
996.804
996.815
996.826
996.838
993.662
995.667
996.922
996.869
996.717
996.705
996.724
996.732
996.735
996.739
996.744
996.75
996.757
996.764
996.771
996.779
996.787
996.796
996.805
996.813
993.598
995.677
996.935
996.867
996.712
996.7
996.719
996.725
996.727
996.731
996.735
996.74
996.745
996.75
996.756
996.762
996.768
996.774
996.779
996.784
993.529
995.691
996.95
996.864
996.706
996.695
996.713
996.718
996.719
996.721
996.724
996.727
996.731
996.735
996.739
996.743
996.746
996.748
996.75
996.751
993.448
995.715
996.968
996.857
996.696
996.688
996.705
996.709
996.709
996.71
996.712
996.714
996.716
996.719
996.72
996.722
996.722
996.722
996.72
996.716
993.285
995.782
996.995
996.836
996.682
996.681
996.697
996.699
996.697
996.698
996.699
996.7
996.701
996.701
996.701
996.701
996.699
996.695
996.689
996.681
996.905
996.936
996.972
997.013
997.06
997.114
997.175
997.241
997.314
997.488
996.902
996.932
996.967
997.007
997.053
997.105
997.163
997.227
997.296
997.47
996.892
996.921
996.955
996.993
997.036
997.085
997.139
997.199
997.262
997.431
996.875
996.901
996.932
996.968
997.008
997.053
997.102
997.155
997.212
997.372
996.85
996.873
996.902
996.934
996.97
997.009
997.052
997.098
997.147
997.296
996.819
996.838
996.864
996.893
996.923
996.956
996.992
997.029
997.068
997.202
996.783
996.798
996.821
996.845
996.87
996.896
996.923
996.951
996.979
997.095
996.744
996.755
996.774
996.793
996.812
996.831
996.849
996.867
996.884
996.979
996.701
996.709
996.725
996.738
996.751
996.763
996.773
996.78
996.786
996.857
996.658
996.663
996.675
996.683
996.69
996.694
996.694
996.69
996.682
996.729
996.62
996.629
996.633
996.634
996.632
996.622
996.604
996.577
996.547
996.582
996.58
996.584
996.582
996.577
996.566
996.547
996.518
996.479
996.437
996.45
996.536
996.535
996.528
996.515
996.497
996.47
996.433
996.386
996.336
996.326
996.491
996.485
996.471
996.453
996.428
996.393
996.348
996.294
996.238
996.207
996.444
996.433
996.414
996.391
996.359
996.318
996.266
996.206
996.146
996.096
996.396
996.381
996.358
996.33
996.293
996.247
996.19
996.126
996.062
995.996
996.351
996.331
996.304
996.272
996.231
996.181
996.121
996.054
995.988
995.908
996.307
996.284
996.254
996.218
996.174
996.122
996.06
995.993
995.926
995.834
996.266
996.24
996.208
996.17
996.125
996.071
996.01
995.943
995.875
995.772
996.229
996.201
996.168
996.129
996.083
996.029
995.968
995.902
995.834
995.722
996.615
996.574
996.531
996.488
996.444
996.4
996.358
996.318
996.281
996.248
996.602
996.562
996.522
996.482
996.441
996.401
996.363
996.326
996.292
996.261
996.585
996.548
996.51
996.474
996.437
996.401
996.366
996.332
996.301
996.273
996.57
996.535
996.5
996.467
996.433
996.4
996.369
996.338
996.31
996.283
996.557
996.524
996.492
996.461
996.431
996.4
996.371
996.343
996.317
996.292
996.545
996.514
996.485
996.456
996.428
996.401
996.374
996.348
996.324
996.3
996.534
996.506
996.478
996.452
996.426
996.401
996.376
996.352
996.33
996.308
996.524
996.498
996.473
996.449
996.424
996.401
996.378
996.356
996.335
996.314
996.515
996.491
996.468
996.445
996.423
996.401
996.38
996.359
996.339
996.32
996.508
996.485
996.463
996.442
996.422
996.401
996.381
996.362
996.343
996.325
996.501
996.48
996.459
996.44
996.42
996.401
996.383
996.365
996.347
996.33
996.494
996.475
996.456
996.438
996.419
996.401
996.384
996.367
996.351
996.334
996.488
996.47
996.453
996.435
996.418
996.402
996.385
996.369
996.354
996.338
996.483
996.466
996.45
996.434
996.417
996.402
996.386
996.371
996.356
996.342
996.478
996.462
996.447
996.432
996.417
996.402
996.387
996.373
996.359
996.345
996.474
996.459
996.445
996.43
996.416
996.402
996.388
996.374
996.361
996.348
996.47
996.456
996.442
996.429
996.415
996.402
996.389
996.376
996.363
996.351
996.467
996.453
996.44
996.427
996.415
996.402
996.389
996.377
996.365
996.353
996.463
996.451
996.438
996.426
996.414
996.402
996.39
996.378
996.367
996.355
996.46
996.448
996.437
996.425
996.413
996.402
996.39
996.379
996.368
996.357
996.457
996.446
996.435
996.424
996.413
996.402
996.391
996.38
996.37
996.359
996.455
996.444
996.433
996.423
996.412
996.402
996.391
996.381
996.371
996.361
996.452
996.442
996.432
996.422
996.412
996.402
996.392
996.382
996.372
996.362
996.45
996.44
996.43
996.421
996.411
996.401
996.392
996.382
996.373
996.364
996.448
996.438
996.429
996.42
996.411
996.401
996.392
996.383
996.374
996.365
996.446
996.437
996.428
996.419
996.41
996.401
996.392
996.384
996.375
996.366
996.444
996.435
996.427
996.418
996.41
996.401
996.393
996.384
996.376
996.367
996.442
996.434
996.426
996.418
996.409
996.401
996.393
996.385
996.376
996.368
996.441
996.433
996.425
996.417
996.409
996.401
996.393
996.385
996.377
996.369
996.439
996.431
996.424
996.416
996.409
996.401
996.393
996.385
996.378
996.37
996.438
996.43
996.423
996.416
996.408
996.401
996.393
996.386
996.378
996.371
996.436
996.429
996.422
996.415
996.408
996.4
996.393
996.386
996.379
996.371
996.435
996.428
996.421
996.414
996.407
996.4
996.393
996.386
996.379
996.372
996.434
996.427
996.421
996.414
996.407
996.4
996.393
996.386
996.379
996.372
996.433
996.427
996.42
996.413
996.407
996.4
996.393
996.387
996.38
996.373
996.432
996.426
996.419
996.413
996.407
996.4
996.393
996.387
996.38
996.373
996.431
996.425
996.419
996.413
996.406
996.4
996.393
996.387
996.38
996.374
996.43
996.424
996.418
996.412
996.406
996.4
996.393
996.387
996.381
996.374
996.43
996.424
996.418
996.412
996.406
996.4
996.393
996.387
996.381
996.375
996.429
996.423
996.417
996.412
996.406
996.399
996.393
996.387
996.381
996.375
996.428
996.423
996.417
996.411
996.405
996.399
996.393
996.387
996.381
996.375
996.428
996.422
996.417
996.411
996.405
996.399
996.393
996.387
996.381
996.375
996.427
996.422
996.416
996.411
996.405
996.399
996.393
996.387
996.381
996.376
996.427
996.421
996.416
996.41
996.405
996.399
996.393
996.387
996.382
996.376
996.426
996.421
996.416
996.41
996.405
996.399
996.393
996.387
996.382
996.376
996.426
996.421
996.416
996.41
996.405
996.399
996.393
996.387
996.382
996.376
996.426
996.421
996.415
996.41
996.404
996.399
996.393
996.388
996.382
996.376
996.426
996.421
996.415
996.41
996.404
996.399
996.393
996.388
996.382
996.376
996.426
996.42
996.415
996.41
996.404
996.399
996.393
996.388
996.382
996.376
996.426
996.42
996.415
996.41
996.404
996.399
996.393
996.388
996.382
996.376
992.943
995.966
997.048
996.791
996.662
996.675
996.688
996.686
996.684
996.683
996.682
996.682
996.681
996.679
996.676
996.673
996.667
996.659
996.648
996.631
992.792
996.031
997.052
996.762
996.65
996.671
996.68
996.676
996.674
996.673
996.672
996.67
996.668
996.665
996.661
996.656
996.65
996.641
996.629
996.612
992.734
996.033
997.04
996.744
996.641
996.663
996.671
996.667
996.665
996.663
996.661
996.659
996.656
996.653
996.648
996.643
996.635
996.626
996.614
996.598
992.702
996.026
997.031
996.732
996.631
996.655
996.662
996.658
996.655
996.653
996.651
996.648
996.645
996.641
996.636
996.629
996.621
996.612
996.6
996.585
992.679
996.018
997.023
996.722
996.621
996.646
996.654
996.649
996.646
996.643
996.641
996.637
996.634
996.629
996.623
996.616
996.608
996.598
996.586
996.572
992.659
996.01
997.015
996.712
996.612
996.637
996.645
996.64
996.637
996.634
996.631
996.627
996.623
996.618
996.612
996.605
996.596
996.586
996.574
996.56
992.642
996.001
997.007
996.703
996.603
996.628
996.636
996.631
996.628
996.625
996.621
996.617
996.613
996.607
996.601
996.593
996.585
996.575
996.563
996.549
992.624
995.992
997
996.695
996.595
996.62
996.627
996.623
996.619
996.616
996.612
996.608
996.603
996.597
996.591
996.583
996.574
996.564
996.553
996.54
992.607
995.983
996.993
996.687
996.586
996.612
996.619
996.614
996.61
996.607
996.603
996.599
996.594
996.588
996.581
996.573
996.565
996.555
996.544
996.531
992.59
995.974
996.986
996.679
996.578
996.604
996.611
996.606
996.602
996.599
996.595
996.59
996.585
996.579
996.572
996.564
996.556
996.546
996.535
996.523
992.573
995.965
996.979
996.672
996.57
996.596
996.603
996.598
996.594
996.59
996.586
996.582
996.576
996.57
996.564
996.556
996.548
996.538
996.527
996.516
992.556
995.957
996.973
996.664
996.563
996.588
996.596
996.59
996.586
996.583
996.579
996.574
996.568
996.562
996.556
996.548
996.54
996.53
996.52
996.509
992.54
995.949
996.967
996.657
996.556
996.581
996.588
996.583
996.579
996.575
996.571
996.566
996.561
996.555
996.548
996.541
996.533
996.524
996.514
996.503
992.524
995.941
996.961
996.65
996.548
996.574
996.581
996.576
996.572
996.568
996.564
996.559
996.554
996.548
996.541
996.534
996.526
996.517
996.508
996.497
992.509
995.933
996.955
996.644
996.542
996.567
996.575
996.569
996.565
996.561
996.557
996.552
996.547
996.541
996.535
996.528
996.52
996.511
996.502
996.492
992.495
995.926
996.949
996.637
996.535
996.561
996.568
996.563
996.558
996.555
996.551
996.546
996.541
996.535
996.528
996.521
996.514
996.506
996.497
996.487
992.48
995.919
996.944
996.631
996.529
996.554
996.562
996.557
996.552
996.549
996.545
996.54
996.535
996.529
996.523
996.516
996.508
996.5
996.492
996.483
992.467
995.912
996.938
996.625
996.523
996.548
996.556
996.551
996.546
996.543
996.539
996.534
996.529
996.523
996.517
996.511
996.503
996.496
996.487
996.479
992.454
995.905
996.933
996.62
996.517
996.543
996.55
996.545
996.541
996.537
996.533
996.528
996.523
996.518
996.512
996.506
996.499
996.491
996.483
996.475
992.441
995.899
996.928
996.614
996.511
996.537
996.545
996.539
996.535
996.532
996.528
996.523
996.518
996.513
996.507
996.501
996.494
996.487
996.479
996.471
992.429
995.893
996.924
996.609
996.506
996.532
996.54
996.534
996.53
996.527
996.523
996.518
996.514
996.508
996.503
996.497
996.49
996.483
996.476
996.468
992.417
995.887
996.919
996.604
996.501
996.527
996.535
996.529
996.525
996.522
996.518
996.514
996.509
996.504
996.498
996.492
996.486
996.479
996.472
996.465
992.406
995.881
996.915
996.599
996.496
996.522
996.53
996.525
996.52
996.517
996.513
996.509
996.505
996.5
996.494
996.489
996.482
996.476
996.469
996.462
992.396
995.876
996.911
996.595
996.491
996.518
996.525
996.52
996.516
996.513
996.509
996.505
996.501
996.496
996.491
996.485
996.479
996.473
996.466
996.459
992.386
995.871
996.907
996.591
996.487
996.513
996.521
996.516
996.512
996.509
996.505
996.501
996.497
996.492
996.487
996.482
996.476
996.47
996.463
996.457
992.376
995.866
996.903
996.586
996.483
996.509
996.517
996.512
996.508
996.505
996.501
996.497
996.493
996.489
996.484
996.478
996.473
996.467
996.461
996.454
992.367
995.862
996.9
996.583
996.479
996.505
996.513
996.508
996.504
996.501
996.498
996.494
996.49
996.485
996.48
996.475
996.47
996.464
996.458
996.452
992.359
995.857
996.897
996.579
996.475
996.502
996.509
996.504
996.501
996.498
996.494
996.491
996.487
996.482
996.477
996.473
996.467
996.462
996.456
996.45
992.351
995.853
996.893
996.575
996.472
996.498
996.506
996.501
996.497
996.494
996.491
996.487
996.483
996.479
996.475
996.47
996.465
996.459
996.454
996.448
992.343
995.849
996.891
996.572
996.468
996.495
996.503
996.498
996.494
996.491
996.488
996.485
996.481
996.477
996.472
996.467
996.462
996.457
996.452
996.446
992.336
995.846
996.888
996.569
996.465
996.492
996.5
996.495
996.491
996.488
996.485
996.482
996.478
996.474
996.47
996.465
996.46
996.455
996.45
996.445
992.329
995.842
996.885
996.566
996.462
996.489
996.497
996.492
996.488
996.486
996.483
996.479
996.476
996.472
996.467
996.463
996.458
996.453
996.448
996.443
992.322
995.839
996.883
996.563
996.459
996.486
996.494
996.489
996.486
996.483
996.48
996.477
996.473
996.469
996.465
996.461
996.456
996.452
996.447
996.442
992.316
995.836
996.88
996.561
996.457
996.483
996.492
996.487
996.483
996.481
996.478
996.475
996.471
996.467
996.463
996.459
996.455
996.45
996.445
996.44
992.311
995.833
996.878
996.558
996.454
996.481
996.489
996.485
996.481
996.479
996.476
996.473
996.469
996.465
996.462
996.457
996.453
996.449
996.444
996.439
992.306
995.831
996.876
996.556
996.452
996.479
996.487
996.482
996.479
996.477
996.474
996.471
996.467
996.464
996.46
996.456
996.452
996.447
996.443
996.438
992.301
995.828
996.874
996.554
996.45
996.477
996.485
996.48
996.477
996.475
996.472
996.469
996.466
996.462
996.458
996.454
996.45
996.446
996.441
996.437
992.296
995.826
996.873
996.552
996.448
996.475
996.483
996.479
996.475
996.473
996.47
996.467
996.464
996.46
996.457
996.453
996.449
996.445
996.44
996.436
992.292
995.824
996.871
996.55
996.446
996.473
996.482
996.477
996.474
996.471
996.469
996.466
996.463
996.459
996.456
996.452
996.448
996.444
996.439
996.435
992.288
995.822
996.87
996.549
996.445
996.472
996.48
996.475
996.472
996.47
996.467
996.464
996.461
996.458
996.454
996.451
996.447
996.443
996.438
996.434
992.285
995.82
996.868
996.547
996.443
996.47
996.479
996.474
996.471
996.469
996.466
996.463
996.46
996.457
996.453
996.45
996.446
996.442
996.438
996.433
992.281
995.818
996.867
996.546
996.442
996.469
996.477
996.473
996.47
996.467
996.465
996.462
996.459
996.456
996.452
996.449
996.445
996.441
996.437
996.433
992.278
995.817
996.866
996.545
996.441
996.468
996.476
996.472
996.469
996.466
996.464
996.461
996.458
996.455
996.451
996.448
996.444
996.44
996.436
996.432
992.276
995.816
996.865
996.544
996.44
996.467
996.475
996.471
996.468
996.466
996.463
996.46
996.457
996.454
996.451
996.447
996.444
996.44
996.436
996.432
992.274
995.814
996.864
996.544
996.439
996.466
996.475
996.47
996.467
996.465
996.462
996.46
996.457
996.453
996.45
996.447
996.443
996.439
996.435
996.431
992.272
995.813
996.864
996.543
996.439
996.466
996.474
996.47
996.466
996.464
996.462
996.459
996.456
996.453
996.45
996.446
996.443
996.439
996.435
996.431
992.273
995.811
996.863
996.543
996.438
996.465
996.474
996.469
996.466
996.464
996.461
996.459
996.456
996.452
996.449
996.446
996.442
996.438
996.434
996.43
992.279
995.808
996.864
996.545
996.438
996.464
996.473
996.469
996.466
996.463
996.461
996.458
996.455
996.452
996.449
996.445
996.442
996.438
996.434
996.43
992.308
995.792
996.863
996.549
996.438
996.463
996.473
996.469
996.465
996.463
996.461
996.458
996.455
996.452
996.449
996.445
996.442
996.438
996.434
996.43
992.406
995.727
996.85
996.559
996.439
996.462
996.473
996.469
996.465
996.463
996.461
996.458
996.455
996.452
996.449
996.445
996.442
996.438
996.434
996.43
996.078
996.041
996.008
995.979
995.947
995.914
995.878
995.84
995.802
995.733
996.082
996.046
996.012
995.983
995.952
995.92
995.886
995.85
995.815
995.754
996.076
996.045
996.014
995.987
995.959
995.929
995.897
995.864
995.83
995.777
996.069
996.043
996.014
995.989
995.963
995.935
995.906
995.875
995.845
995.801
996.063
996.04
996.015
995.992
995.967
995.941
995.914
995.886
995.859
995.824
996.058
996.039
996.016
995.994
995.971
995.947
995.921
995.895
995.871
995.845
996.054
996.037
996.017
995.997
995.975
995.952
995.928
995.904
995.882
995.863
996.052
996.036
996.018
995.999
995.978
995.956
995.933
995.911
995.891
995.877
996.051
996.037
996.02
996.001
995.981
995.959
995.937
995.915
995.897
995.887
996.052
996.037
996.021
996.002
995.982
995.961
995.939
995.918
995.9
995.892
996.062
996.07
996.08
996.089
996.098
996.106
996.115
996.123
996.131
996.139
996.146
996.154
996.161
996.167
996.174
996.18
996.186
996.192
996.197
996.203
996.208
996.213
996.217
996.222
996.226
996.23
996.234
996.238
996.242
996.245
996.249
996.252
996.255
996.258
996.261
996.264
996.267
996.27
996.273
996.275
996.278
996.281
996.284
996.286
996.289
996.292
996.296
996.299
996.303
996.306
996.058
996.067
996.077
996.086
996.095
996.104
996.113
996.121
996.129
996.137
996.145
996.152
996.159
996.166
996.173
996.179
996.185
996.191
996.197
996.202
996.207
996.212
996.217
996.221
996.226
996.23
996.234
996.238
996.241
996.245
996.248
996.251
996.255
996.258
996.261
996.264
996.267
996.269
996.272
996.275
996.278
996.28
996.283
996.286
996.289
996.292
996.295
996.298
996.302
996.305
996.054
996.062
996.073
996.083
996.092
996.101
996.11
996.119
996.127
996.135
996.143
996.151
996.158
996.165
996.171
996.178
996.184
996.19
996.196
996.201
996.206
996.211
996.216
996.22
996.225
996.229
996.233
996.237
996.241
996.244
996.248
996.251
996.254
996.257
996.26
996.263
996.266
996.269
996.272
996.274
996.277
996.28
996.283
996.285
996.288
996.291
996.294
996.297
996.301
996.304
996.049
996.057
996.069
996.079
996.089
996.099
996.108
996.117
996.125
996.133
996.141
996.149
996.156
996.163
996.17
996.177
996.183
996.189
996.195
996.2
996.205
996.21
996.215
996.22
996.224
996.228
996.232
996.236
996.24
996.244
996.247
996.25
996.254
996.257
996.26
996.263
996.265
996.268
996.271
996.274
996.276
996.279
996.282
996.284
996.287
996.29
996.292
996.295
996.299
996.301
996.043
996.05
996.064
996.076
996.086
996.096
996.105
996.114
996.123
996.132
996.14
996.147
996.155
996.162
996.169
996.176
996.182
996.188
996.194
996.199
996.204
996.209
996.214
996.219
996.223
996.228
996.232
996.236
996.239
996.243
996.246
996.25
996.253
996.256
996.259
996.262
996.265
996.267
996.27
996.273
996.275
996.278
996.28
996.283
996.285
996.288
996.29
996.293
996.296
996.298
996.038
996.044
996.06
996.072
996.083
996.093
996.103
996.112
996.121
996.13
996.138
996.146
996.154
996.161
996.168
996.174
996.181
996.187
996.193
996.198
996.203
996.209
996.213
996.218
996.223
996.227
996.231
996.235
996.238
996.242
996.246
996.249
996.252
996.255
996.258
996.261
996.264
996.266
996.269
996.271
996.274
996.276
996.279
996.281
996.283
996.286
996.288
996.29
996.293
996.295
996.033
996.039
996.056
996.07
996.081
996.091
996.101
996.111
996.12
996.129
996.137
996.145
996.153
996.16
996.167
996.174
996.18
996.186
996.192
996.197
996.203
996.208
996.213
996.217
996.222
996.226
996.23
996.234
996.238
996.241
996.245
996.248
996.251
996.254
996.257
996.26
996.262
996.265
996.268
996.27
996.272
996.275
996.277
996.279
996.281
996.283
996.285
996.287
996.289
996.291
996.031
996.035
996.054
996.069
996.08
996.091
996.101
996.111
996.12
996.128
996.137
996.145
996.152
996.159
996.166
996.173
996.179
996.185
996.191
996.197
996.202
996.207
996.212
996.216
996.221
996.225
996.229
996.233
996.237
996.24
996.244
996.247
996.25
996.253
996.256
996.259
996.261
996.264
996.266
996.268
996.271
996.273
996.275
996.277
996.278
996.28
996.282
996.283
996.285
996.286
996.029
996.034
996.055
996.07
996.081
996.091
996.102
996.111
996.12
996.129
996.137
996.145
996.152
996.159
996.166
996.173
996.179
996.185
996.19
996.196
996.201
996.206
996.211
996.216
996.22
996.224
996.228
996.232
996.236
996.239
996.242
996.246
996.249
996.252
996.254
996.257
996.26
996.262
996.264
996.266
996.269
996.27
996.272
996.274
996.276
996.277
996.278
996.279
996.28
996.281
996.03
996.042
996.062
996.075
996.086
996.096
996.106
996.115
996.123
996.131
996.139
996.146
996.154
996.16
996.167
996.173
996.179
996.185
996.191
996.196
996.201
996.206
996.211
996.215
996.219
996.223
996.227
996.231
996.235
996.238
996.241
996.244
996.247
996.25
996.253
996.255
996.258
996.26
996.262
996.264
996.266
996.268
996.27
996.271
996.272
996.274
996.274
996.275
996.276
996.276
996.084
996.079
996.079
996.086
996.094
996.102
996.111
996.119
996.127
996.134
996.142
996.149
996.156
996.162
996.169
996.175
996.181
996.186
996.192
996.197
996.202
996.207
996.211
996.216
996.22
996.224
996.228
996.231
996.235
996.238
996.241
996.244
996.247
996.25
996.252
996.255
996.257
996.259
996.261
996.263
996.265
996.266
996.268
996.269
996.27
996.271
996.271
996.272
996.272
996.272
996.098
996.096
996.094
996.098
996.104
996.111
996.118
996.125
996.132
996.139
996.146
996.153
996.159
996.165
996.171
996.177
996.183
996.188
996.193
996.198
996.203
996.208
996.212
996.216
996.22
996.224
996.228
996.231
996.235
996.238
996.241
996.244
996.246
996.249
996.252
996.254
996.256
996.258
996.26
996.262
996.263
996.265
996.266
996.267
996.268
996.268
996.269
996.269
996.269
996.269
996.106
996.107
996.106
996.11
996.115
996.12
996.126
996.133
996.139
996.145
996.151
996.157
996.163
996.169
996.175
996.18
996.185
996.19
996.195
996.2
996.204
996.209
996.213
996.217
996.221
996.225
996.228
996.231
996.235
996.238
996.241
996.243
996.246
996.248
996.251
996.253
996.255
996.257
996.259
996.26
996.262
996.263
996.264
996.265
996.265
996.266
996.266
996.266
996.266
996.265
996.115
996.117
996.117
996.12
996.125
996.129
996.134
996.14
996.145
996.151
996.157
996.162
996.168
996.173
996.178
996.183
996.188
996.193
996.197
996.202
996.206
996.21
996.214
996.218
996.222
996.225
996.228
996.232
996.235
996.238
996.24
996.243
996.245
996.248
996.25
996.252
996.254
996.256
996.257
996.259
996.26
996.261
996.262
996.263
996.263
996.263
996.263
996.263
996.263
996.262
996.125
996.127
996.128
996.13
996.134
996.138
996.143
996.147
996.152
996.157
996.162
996.167
996.172
996.177
996.182
996.186
996.191
996.195
996.2
996.204
996.208
996.212
996.215
996.219
996.222
996.226
996.229
996.232
996.235
996.238
996.24
996.243
996.245
996.247
996.249
996.251
996.253
996.255
996.256
996.257
996.258
996.259
996.26
996.261
996.261
996.261
996.261
996.26
996.26
996.259
996.135
996.137
996.138
996.14
996.143
996.147
996.151
996.155
996.159
996.163
996.168
996.172
996.177
996.181
996.185
996.19
996.194
996.198
996.202
996.206
996.209
996.213
996.217
996.22
996.223
996.226
996.229
996.232
996.235
996.238
996.24
996.242
996.245
996.247
996.249
996.25
996.252
996.253
996.255
996.256
996.257
996.258
996.258
996.259
996.259
996.259
996.258
996.258
996.257
996.256
996.146
996.147
996.148
996.15
996.152
996.155
996.158
996.162
996.166
996.169
996.173
996.177
996.181
996.185
996.189
996.193
996.197
996.201
996.204
996.208
996.211
996.215
996.218
996.221
996.224
996.227
996.23
996.233
996.235
996.238
996.24
996.242
996.244
996.246
996.248
996.25
996.251
996.252
996.254
996.255
996.255
996.256
996.256
996.257
996.257
996.257
996.256
996.255
996.254
996.253
996.156
996.157
996.158
996.159
996.161
996.164
996.166
996.169
996.172
996.176
996.179
996.182
996.186
996.19
996.193
996.197
996.2
996.204
996.207
996.21
996.213
996.217
996.22
996.222
996.225
996.228
996.231
996.233
996.236
996.238
996.24
996.242
996.244
996.246
996.247
996.249
996.25
996.251
996.252
996.253
996.254
996.254
996.255
996.255
996.255
996.254
996.254
996.253
996.252
996.25
996.167
996.167
996.168
996.169
996.17
996.172
996.174
996.176
996.179
996.182
996.185
996.188
996.191
996.194
996.197
996.2
996.203
996.206
996.21
996.213
996.215
996.218
996.221
996.224
996.226
996.229
996.231
996.234
996.236
996.238
996.24
996.242
996.244
996.245
996.247
996.248
996.249
996.25
996.251
996.252
996.253
996.253
996.253
996.253
996.253
996.252
996.252
996.251
996.249
996.248
996.177
996.176
996.177
996.178
996.179
996.18
996.182
996.184
996.186
996.188
996.19
996.193
996.196
996.198
996.201
996.204
996.207
996.209
996.212
996.215
996.218
996.22
996.223
996.225
996.228
996.23
996.232
996.234
996.236
996.238
996.24
996.242
996.243
996.245
996.246
996.247
996.249
996.249
996.25
996.251
996.251
996.252
996.252
996.252
996.251
996.251
996.25
996.249
996.247
996.245
996.187
996.186
996.186
996.186
996.187
996.188
996.189
996.19
996.192
996.194
996.196
996.198
996.2
996.203
996.205
996.208
996.21
996.213
996.215
996.217
996.22
996.222
996.225
996.227
996.229
996.231
996.233
996.235
996.237
996.239
996.24
996.242
996.243
996.245
996.246
996.247
996.248
996.249
996.249
996.25
996.25
996.25
996.25
996.25
996.25
996.249
996.248
996.247
996.245
996.244
996.196
996.195
996.195
996.195
996.195
996.195
996.196
996.197
996.198
996.2
996.202
996.203
996.205
996.207
996.209
996.211
996.213
996.216
996.218
996.22
996.222
996.224
996.226
996.228
996.23
996.232
996.234
996.236
996.237
996.239
996.24
996.242
996.243
996.244
996.245
996.246
996.247
996.248
996.248
996.249
996.249
996.249
996.249
996.249
996.248
996.248
996.247
996.245
996.244
996.242
996.206
996.204
996.203
996.203
996.203
996.203
996.203
996.204
996.205
996.206
996.207
996.208
996.21
996.212
996.213
996.215
996.217
996.219
996.221
996.223
996.224
996.226
996.228
996.23
996.232
996.233
996.235
996.237
996.238
996.239
996.241
996.242
996.243
996.244
996.245
996.246
996.247
996.247
996.248
996.248
996.248
996.248
996.248
996.248
996.247
996.246
996.245
996.244
996.243
996.241
996.214
996.212
996.211
996.211
996.21
996.21
996.21
996.21
996.211
996.211
996.212
996.213
996.215
996.216
996.217
996.219
996.22
996.222
996.223
996.225
996.227
996.228
996.23
996.232
996.233
996.235
996.236
996.237
996.239
996.24
996.241
996.242
996.243
996.244
996.245
996.246
996.246
996.247
996.247
996.247
996.247
996.247
996.247
996.247
996.246
996.245
996.244
996.243
996.242
996.24
996.223
996.22
996.219
996.218
996.217
996.216
996.216
996.216
996.216
996.217
996.217
996.218
996.219
996.22
996.221
996.222
996.224
996.225
996.226
996.228
996.229
996.23
996.232
996.233
996.235
996.236
996.237
996.238
996.24
996.241
996.242
996.243
996.243
996.244
996.245
996.246
996.246
996.246
996.247
996.247
996.247
996.247
996.246
996.246
996.245
996.244
996.243
996.242
996.241
996.239
996.23
996.227
996.226
996.225
996.224
996.223
996.222
996.222
996.222
996.222
996.222
996.223
996.223
996.224
996.225
996.226
996.227
996.228
996.229
996.23
996.231
996.233
996.234
996.235
996.236
996.237
996.238
996.239
996.24
996.241
996.242
996.243
996.244
996.244
996.245
996.245
996.246
996.246
996.246
996.246
996.246
996.246
996.246
996.245
996.245
996.244
996.243
996.241
996.24
996.238
996.238
996.234
996.233
996.231
996.23
996.229
996.228
996.227
996.227
996.227
996.227
996.227
996.228
996.228
996.229
996.229
996.23
996.231
996.232
996.233
996.234
996.235
996.236
996.237
996.238
996.238
996.239
996.24
996.241
996.242
996.243
996.243
996.244
996.245
996.245
996.245
996.246
996.246
996.246
996.246
996.246
996.246
996.245
996.245
996.244
996.243
996.242
996.241
996.24
996.238
996.245
996.241
996.239
996.238
996.236
996.235
996.234
996.233
996.232
996.232
996.232
996.231
996.232
996.232
996.232
996.233
996.233
996.234
996.234
996.235
996.236
996.237
996.237
996.238
996.239
996.24
996.241
996.241
996.242
996.243
996.243
996.244
996.244
996.245
996.245
996.246
996.246
996.246
996.246
996.246
996.246
996.245
996.245
996.244
996.244
996.243
996.242
996.241
996.239
996.238
996.251
996.247
996.245
996.243
996.242
996.24
996.239
996.238
996.237
996.236
996.236
996.236
996.235
996.235
996.236
996.236
996.236
996.237
996.237
996.238
996.238
996.239
996.239
996.24
996.241
996.241
996.242
996.242
996.243
996.244
996.244
996.244
996.245
996.245
996.245
996.246
996.246
996.246
996.246
996.246
996.245
996.245
996.245
996.244
996.243
996.243
996.242
996.241
996.239
996.238
996.257
996.253
996.251
996.249
996.247
996.245
996.244
996.243
996.242
996.241
996.24
996.24
996.239
996.239
996.239
996.239
996.239
996.239
996.24
996.24
996.24
996.241
996.241
996.242
996.242
996.243
996.243
996.243
996.244
996.244
996.245
996.245
996.245
996.246
996.246
996.246
996.246
996.246
996.246
996.246
996.245
996.245
996.245
996.244
996.243
996.242
996.242
996.241
996.239
996.238
996.262
996.259
996.256
996.254
996.252
996.25
996.248
996.247
996.246
996.245
996.244
996.243
996.243
996.242
996.242
996.242
996.242
996.242
996.242
996.242
996.242
996.243
996.243
996.243
996.244
996.244
996.244
996.245
996.245
996.245
996.245
996.246
996.246
996.246
996.246
996.246
996.246
996.246
996.246
996.246
996.245
996.245
996.245
996.244
996.243
996.243
996.242
996.241
996.24
996.238
996.267
996.264
996.261
996.259
996.257
996.255
996.253
996.251
996.25
996.249
996.248
996.247
996.246
996.246
996.245
996.245
996.245
996.245
996.244
996.244
996.244
996.245
996.245
996.245
996.245
996.245
996.245
996.246
996.246
996.246
996.246
996.246
996.246
996.247
996.247
996.247
996.246
996.246
996.246
996.246
996.246
996.245
996.245
996.244
996.243
996.243
996.242
996.241
996.24
996.239
996.272
996.268
996.266
996.263
996.261
996.259
996.257
996.255
996.254
996.252
996.251
996.25
996.249
996.249
996.248
996.248
996.247
996.247
996.247
996.247
996.247
996.246
996.246
996.247
996.247
996.247
996.247
996.247
996.247
996.247
996.247
996.247
996.247
996.247
996.247
996.247
996.247
996.247
996.246
996.246
996.246
996.245
996.245
996.244
996.244
996.243
996.242
996.241
996.24
996.239
996.276
996.273
996.27
996.268
996.265
996.263
996.261
996.259
996.257
996.256
996.255
996.254
996.253
996.252
996.251
996.25
996.25
996.249
996.249
996.249
996.248
996.248
996.248
996.248
996.248
996.248
996.248
996.248
996.248
996.248
996.248
996.248
996.248
996.248
996.248
996.247
996.247
996.247
996.247
996.246
996.246
996.246
996.245
996.244
996.244
996.243
996.242
996.242
996.241
996.24
996.281
996.277
996.274
996.272
996.269
996.267
996.265
996.263
996.261
996.259
996.258