/*--------------------------------*- C++ -*----------------------------------*\
  =========                 |
  \\      /  F ield         | OpenFOAM: The Open Source CFD Toolbox
   \\    /   O peration     | Website:  https://openfoam.org
    \\  /    A nd           | Version:  6
     \\/     M anipulation  |
\*---------------------------------------------------------------------------*/
FoamFile
{
    version     2.0;
    format      ascii;
    class       volVectorField;
    location    "1.35";
    object      U;
}
// * * * * * * * * * * * * * * * * * * * * * * * * * * * * * * * * * * * * * //

dimensions      [0 1 -1 0 0 0 0];

internalField   nonuniform List<vector> 
5600
(
(2.20718 0.00714728 3.73282e-19)
(1.28184 0.00801017 -6.42227e-18)
(0.964775 0.00697083 6.40804e-18)
(1.01773 0.00511688 0)
(1.05885 0.00431377 0)
(1.05366 0.00455107 0)
(1.04196 0.00500266 -1.19582e-17)
(1.03437 0.00541022 1.19311e-17)
(1.02777 0.00586842 0)
(1.02025 0.00643893 0)
(1.01178 0.00712033 0)
(1.00244 0.00791026 0)
(0.992139 0.00881987 0)
(0.980699 0.00986561 -2.35429e-17)
(0.967948 0.0110651 2.34902e-17)
(0.953701 0.012436 -4.68766e-17)
(0.937755 0.0139917 4.6772e-17)
(0.919896 0.0157299 0)
(0.899912 0.0176086 -3.63797e-19)
(0.877636 0.0194899 0)
(2.22321 0.0127196 -3.68079e-19)
(1.27476 0.0165399 6.3335e-18)
(0.964343 0.0162659 -6.32181e-18)
(1.02199 0.0142411 0)
(1.06182 0.0133128 0)
(1.05541 0.0138029 2.44133e-17)
(1.04357 0.0147709 3.74446e-22)
(1.03605 0.0158686 -7.36788e-19)
(1.02945 0.0171914 1.50454e-22)
(1.02195 0.0188174 -2.34944e-17)
(1.01353 0.0207544 0)
(1.00429 0.0230118 -4.75433e-17)
(0.994116 0.0256201 4.67233e-17)
(0.982843 0.0286214 0)
(0.970305 0.0320634 0)
(0.956328 0.0359942 0)
(0.940718 0.0404496 0)
(0.923272 0.0454184 -4.6288e-17)
(0.903783 0.0507776 4.65621e-17)
(0.881995 0.0561705 4.54247e-17)
(2.2422 0.0136047 0)
(1.27137 0.0249237 0)
(0.961922 0.026845 0)
(1.02394 0.0235543 0)
(1.0643 0.0220963 2.33947e-17)
(1.0576 0.0229496 -2.409e-17)
(1.04593 0.0244815 -1.45786e-18)
(1.03872 0.0262292 -7.27859e-19)
(1.03237 0.0283775 2.32573e-17)
(1.02508 0.0310371 -2.17716e-17)
(1.0169 0.0342139 -1.44931e-18)
(1.00795 0.0379231 4.70338e-17)
(0.998119 0.0422118 -4.7687e-17)
(0.987253 0.047145 1.44295e-18)
(0.975209 0.0527969 4.61073e-17)
(0.961831 0.0592428 -9.35182e-17)
(0.946949 0.0665377 -1.43727e-18)
(0.930374 0.0746618 4.59054e-17)
(0.911907 0.0834125 -1.43246e-18)
(0.891214 0.0922254 -7.15554e-19)
(2.26545 0.0163229 0)
(1.26961 0.031893 -1.44192e-18)
(0.958661 0.0351763 0)
(1.02489 0.0313847 0)
(1.06649 0.0298742 0)
(1.05998 0.0312716 0)
(1.04876 0.0334892 1.43641e-18)
(1.04212 0.0359851 2.43953e-17)
(1.03626 0.0390245 -2.29378e-17)
(1.02943 0.0427535 -1.43222e-18)
(1.02173 0.0471818 2.86163e-18)
(1.0133 0.0523325 0)
(1.00405 0.0582696 -4.42689e-17)
(0.993864 0.0650794 4.42253e-17)
(0.982623 0.0728605 4.56078e-17)
(0.97021 0.0817128 -4.55628e-17)
(0.956484 0.0917097 9.24604e-17)
(0.941286 0.102826 -9.0948e-17)
(0.92444 0.114787 1.41969e-18)
(0.905564 0.126845 1.41887e-18)
(2.29256 0.0193137 -5.59348e-18)
(1.26782 0.0377699 7.0652e-18)
(0.95487 0.0418343 -1.13224e-17)
(1.02577 0.037746 -1.13156e-17)
(1.06883 0.0364125 2.2624e-17)
(1.06266 0.0384755 2.26128e-17)
(1.05208 0.0414788 -2.26033e-17)
(1.0462 0.0448188 1.41214e-18)
(1.04103 0.0488225 1.41155e-18)
(1.03485 0.053662 4.51509e-17)
(1.02783 0.0593494 -9.02638e-17)
(1.02013 0.0659152 1.40944e-18)
(1.0117 0.0734386 4.6503e-17)
(1.00245 0.0820251 1.40858e-18)
(0.992316 0.0917936 -4.36481e-17)
(0.98122 0.102865 4.78513e-17)
(0.969068 0.115328 1.40679e-18)
(0.955739 0.129151 0)
(0.941103 0.143996 1.40559e-18)
(0.924761 0.158947 1.40536e-18)
(2.32307 0.0221168 5.47353e-18)
(1.26548 0.0426913 -5.53114e-18)
(0.950624 0.0470459 1.38623e-18)
(1.0269 0.0426063 0)
(1.07158 0.0415745 2.2184e-17)
(1.06581 0.0444224 -2.21886e-17)
(1.05598 0.0483098 1.38709e-18)
(1.05099 0.0525814 -4.7171e-17)
(1.04663 0.0576151 -2.77549e-18)
(1.04123 0.0635964 8.88284e-17)
(1.03502 0.0705346 -4.71995e-17)
(1.02821 0.0784656 -1.38851e-18)
(1.02079 0.0874811 -4.72185e-17)
(1.0127 0.0977018 -4.58391e-17)
(1.00394 0.109263 8.75268e-17)
(0.994469 0.122299 8.61548e-17)
(0.984261 0.136912 -9.03401e-17)
(0.973237 0.153064 8.75777e-17)
(0.961326 0.170356 -1.79359e-16)
(0.948138 0.187722 8.76228e-17)
(2.3564 0.0249115 0)
(1.26187 0.0465173 0)
(0.945756 0.0504648 -1.3553e-18)
(1.02851 0.0457232 2.1701e-17)
(1.07499 0.0452471 -2.17202e-17)
(1.06957 0.049057 -1.35859e-18)
(1.06053 0.0539462 -1.35982e-18)
(1.05648 0.0592394 1.36103e-18)
(1.05298 0.0653579 1.36223e-18)
(1.0484 0.0724905 0)
(1.04308 0.0806404 4.50326e-17)
(1.03727 0.0898486 2.18771e-22)
(1.03099 0.100218 -4.23774e-17)
(1.02423 0.111881 -8.61979e-17)
(1.01704 0.124984 1.75285e-16)
(1.00946 0.139671 -8.63481e-17)
(1.00149 0.156047 8.77957e-17)
(0.993128 0.174074 -8.64985e-17)
(0.984348 0.193303 -8.79482e-17)
(0.974796 0.212543 8.66515e-17)
(2.39175 0.0291743 0)
(1.25522 0.0487018 1.3192e-18)
(0.939835 0.0510444 -2.11668e-17)
(1.03093 0.0467879 2.25258e-17)
(1.07928 0.0474564 -2.12305e-17)
(1.07398 0.0524336 2.39228e-17)
(1.06567 0.0584543 0)
(1.06254 0.0648662 1.33335e-18)
(1.05986 0.0721024 0)
(1.05611 0.0803536 -1.33765e-18)
(1.0517 0.0896258 4.28741e-17)
(1.04693 0.0999693 -4.29431e-17)
(1.04188 0.111498 -8.60252e-17)
(1.03658 0.124353 8.48175e-17)
(1.03113 0.138685 0)
(1.02561 0.154643 0)
(1.02011 0.172333 8.6582e-17)
(1.01466 0.19172 1.99025e-22)
(1.00931 0.212329 -8.68613e-17)
(1.00373 0.232914 8.83536e-17)
(2.42842 0.0412663 -4.44206e-18)
(1.24098 0.0459108 4.49134e-18)
(0.933125 0.0450686 0)
(1.03558 0.0453708 -1.93872e-18)
(1.08475 0.0486349 -2.07255e-17)
(1.07885 0.0548285 -2.20734e-17)
(1.07119 0.0620784 8.32982e-17)
(1.06891 0.0697412 -4.30534e-17)
(1.06694 0.0781153 -4.18486e-17)
(1.06393 0.0874138 4.32597e-17)
(1.06043 0.0976847 -8.40991e-17)
(1.05675 0.108997 1.68602e-16)
(1.05299 0.121474 1.8963e-22)
(1.04923 0.135259 -8.47073e-17)
(1.04561 0.150499 0)
(1.04228 0.167336 8.51166e-17)
(1.03938 0.185876 -1.70644e-16)
(1.03701 0.206097 8.55286e-17)
(1.03531 0.227537 0)
(1.03402 0.248913 0)
(2.46825 0.0677628 -5.54744e-18)
(1.20908 0.028436 4.36525e-18)
(0.931453 0.0272095 0)
(1.04768 0.0422426 2.07602e-17)
(1.0917 0.050221 -2.01951e-17)
(1.08349 0.0569796 -4.05161e-17)
(1.0767 0.0652889 -3.62219e-22)
(1.07522 0.074289 8.15523e-17)
(1.07376 0.0837668 -8.1814e-17)
(1.07144 0.0939879 4.10385e-17)
(1.06886 0.105118 -8.23417e-17)
(1.06632 0.117258 8.26075e-17)
(1.0639 0.130529 -8.28749e-17)
(1.06173 0.145066 8.31436e-17)
(1.05997 0.161 8.34137e-17)
(1.05885 0.178451 -8.36853e-17)
(1.05857 0.197504 0)
(1.05932 0.218164 -8.42321e-17)
(1.06137 0.240142 8.45081e-17)
(1.06448 0.262202 8.47603e-17)
(0.849667 0.0211345 0)
(0.811666 0.0233998 0)
(0.766 0.0260017 4.23527e-17)
(0.710554 0.0289989 -2.29889e-17)
(0.642481 0.0324056 -2.51388e-17)
(0.558132 0.0360716 4.15882e-17)
(0.453578 0.039429 -1.54458e-17)
(0.324963 0.0410874 3.48561e-17)
(0.170712 0.0382191 0)
(0.0479002 0.0217568 0)
(0.854692 0.0612061 -1.83768e-17)
(0.817393 0.0681021 -5.92323e-17)
(0.772433 0.0760582 -2.13033e-17)
(0.717856 0.0852474 2.31262e-17)
(0.650815 0.0957177 2.52848e-17)
(0.567615 0.107007 -5.57614e-17)
(0.464199 0.117406 4.65826e-17)
(0.336448 0.122648 -8.75541e-17)
(0.181709 0.113791 -1.00267e-17)
(0.0544231 0.0649968 6.41025e-17)
(0.865296 0.100481 1.84527e-17)
(0.829308 0.111827 -1.9826e-17)
(0.78572 0.124954 4.27851e-17)
(0.732834 0.140117 4.64519e-17)
(0.667795 0.157393 -5.0797e-17)
(0.586822 0.176005 -2.80095e-17)
(0.485592 0.193122 3.12072e-17)
(0.359319 0.201644 -5.27989e-17)
(0.203576 0.186452 8.06465e-17)
(0.0674804 0.106679 -1.5241e-16)
(0.881791 0.138106 3.69317e-17)
(0.847623 0.153719 0)
(0.805968 0.171786 0)
(0.755488 0.192609 -4.64869e-17)
(0.693297 0.216294 5.0835e-17)
(0.61548 0.241744 2.137e-21)
(0.517322 0.265021 0)
(0.393016 0.276294 7.04619e-17)
(0.235704 0.254685 -6.05362e-17)
(0.0866574 0.145544 1.87753e-16)
(0.903828 0.172801 -3.68365e-17)
(0.871926 0.192352 0)
(0.83269 0.215008 8.53939e-17)
(0.78524 0.241062 0)
(0.726626 0.270648 5.06788e-17)
(0.652756 0.302346 5.58859e-17)
(0.558404 0.331136 0)
(0.436458 0.344593 1.40421e-16)
(0.27699 0.316612 -2.01037e-17)
(0.111232 0.180428 -7.01222e-17)
(0.930613 0.20364 2.02282e-21)
(0.901356 0.226686 -1.57332e-16)
(0.864959 0.25347 -2.69971e-21)
(0.821067 0.284218 0)
(0.766635 0.319086 -5.03465e-17)
(0.697345 0.356329 -5.54982e-17)
(0.607374 0.389874 0)
(0.488066 0.404865 -1.39343e-16)
(0.325886 0.370571 -1.59472e-16)
(0.140222 0.210326 2.31617e-17)
(0.961087 0.22998 7.50147e-22)
(0.934759 0.256028 1.1121e-21)
(0.901536 0.28642 1.68105e-16)
(0.861624 0.321268 -1.28901e-21)
(0.811828 0.360734 -9.96593e-17)
(0.747578 0.402731 -1.09814e-16)
(0.662371 0.440158 -3.05564e-17)
(0.54584 0.455906 3.44227e-17)
(0.380455 0.415308 1.181e-16)
(0.172394 0.234439 2.2844e-16)
(0.994062 0.251472 -1.79492e-21)
(0.970771 0.280068 7.69628e-17)
(0.940948 0.313543 -1.65957e-16)
(0.905307 0.351895 -4.50067e-17)
(0.860421 0.395257 2.45765e-16)
(0.801473 0.441169 1.08268e-16)
(0.721239 0.481518 -1.20409e-16)
(0.607528 0.497146 0)
(0.438566 0.45019 3.87094e-17)
(0.206359 0.252314 -4.03823e-16)
(1.02833 0.268204 -1.23899e-21)
(1.00766 0.29889 -7.57702e-17)
(0.981289 0.334998 4.05648e-21)
(0.950067 0.376334 -8.85433e-17)
(0.910245 0.422959 9.66484e-17)
(0.856832 0.472008 5.31893e-17)
(0.781855 0.514367 5.91162e-17)
(0.671153 0.529034 -3.32354e-17)
(0.498354 0.475621 3.79175e-17)
(0.24075 0.264046 1.75564e-16)
(1.06185 0.28181 -6.93185e-17)
(1.04268 0.314096 -7.43735e-17)
(1.01995 0.352458 8.01248e-17)
(0.993301 0.396297 8.68223e-17)
(0.958825 0.445454 -1.89461e-16)
(0.911418 0.496555 0)
(0.842155 0.539509 0)
(0.734501 0.551829 -3.24875e-17)
(0.557103 0.491551 3.70146e-17)
(0.273467 0.269389 0)
(1.09216 0.302773 6.7793e-17)
(1.07357 0.336143 7.28163e-17)
(1.05443 0.37488 0)
(1.03172 0.418963 -8.51687e-17)
(1.0018 0.4674 0)
(0.959182 0.515998 -1.02472e-16)
(0.893789 0.554044 -5.69962e-17)
(0.786952 0.55915 -6.41627e-17)
(0.603999 0.490943 -1.46641e-16)
(0.298643 0.264735 1.70119e-16)
(1.12427 0.321486 1.64131e-21)
(1.1094 0.355515 -1.48089e-16)
(1.09389 0.393827 2.26787e-21)
(1.07477 0.436908 8.66485e-17)
(1.04841 0.482825 0)
(1.00859 0.526489 1.04323e-16)
(0.943953 0.556695 0)
(0.834075 0.551678 1.30781e-16)
(0.642632 0.474063 1.58077e-20)
(0.317188 0.249784 -1.73606e-16)
(1.15764 0.336099 6.9911e-17)
(1.14699 0.369717 -7.51083e-17)
(1.13503 0.40688 2.43058e-16)
(1.11907 0.447914 -8.79282e-17)
(1.09535 0.4901 -9.61005e-17)
(1.05687 0.527603 -5.29614e-17)
(0.991103 0.54893 2.50889e-21)
(0.876302 0.533249 6.64556e-17)
(0.675289 0.446705 2.66124e-16)
(0.331067 0.228769 4.41676e-17)
(1.19202 0.34573 -1.41487e-16)
(1.18528 0.378209 0)
(1.17651 0.413463 -4.65626e-21)
(1.16311 0.451425 8.90115e-17)
(1.14097 0.48876 2.43286e-16)
(1.10238 0.51912 5.36401e-17)
(1.03382 0.531022 1.19487e-16)
(0.912577 0.504964 -1.01043e-16)
(0.701242 0.41109 -1.92817e-16)
(0.340152 0.203671 1.79305e-16)
(1.2267 0.350056 7.14135e-17)
(1.22332 0.380717 7.67294e-17)
(1.21712 0.41331 -1.65592e-16)
(1.20538 0.447262 -4.49468e-17)
(1.18354 0.478762 -1.96578e-16)
(1.14317 0.501172 -1.62582e-16)
(1.06998 0.503352 -2.41503e-16)
(0.940756 0.46759 1.36209e-16)
(0.718648 0.368552 0)
(0.343788 0.175753 -2.04157e-16)
(1.2607 0.348872 1.07853e-16)
(1.25995 0.377092 0)
(1.25546 0.406339 0)
(1.24425 0.435494 0)
(1.22121 0.460405 0)
(1.17729 0.474374 1.09202e-16)
(1.09765 0.466929 1.21686e-16)
(0.959122 0.422563 0)
(0.726338 0.32086 0)
(0.341762 0.14632 -9.15262e-17)
(1.29294 0.342204 -3.61042e-17)
(1.29394 0.367437 -9.00263e-22)
(1.29009 0.392752 -4.18679e-17)
(1.27808 0.416497 4.54618e-17)
(1.25224 0.43434 -4.9723e-17)
(1.20298 0.439743 1.37127e-16)
(1.11526 0.423207 -3.0566e-17)
(0.966552 0.371753 6.89833e-17)
(0.723863 0.270045 -1.97659e-17)
(0.334263 0.116658 9.20357e-17)
(1.32236 0.33031 7.23221e-17)
(1.32407 0.352114 -3.88553e-17)
(1.31962 0.373037 0)
(1.30534 0.390962 -4.55379e-17)
(1.27504 0.401539 0)
(1.21878 0.398611 -5.49462e-17)
(1.12171 0.373913 -3.06179e-17)
(0.9625 0.317206 3.45536e-17)
(0.711367 0.218155 0)
(0.321782 0.0879333 -1.15274e-17)
(1.34791 0.313651 -5.41815e-17)
(1.34919 0.331715 3.88114e-17)
(1.34284 0.347928 0)
(1.32483 0.359819 0)
(1.28855 0.363195 4.97463e-17)
(1.22396 0.352482 -2.74396e-17)
(1.11674 0.320875 -3.05802e-17)
(0.947343 0.260983 -6.90256e-17)
(0.689739 0.16715 3.95567e-17)
(0.305098 0.0611681 -5.18e-17)
(1.36894 0.292869 5.39794e-17)
(1.36874 0.306898 -5.9153e-22)
(1.35927 0.318094 -2.0862e-17)
(1.33613 0.323795 0)
(1.29245 0.32017 -2.47739e-17)
(1.21836 0.302466 -1.36623e-17)
(1.10048 0.265542 3.80648e-17)
(0.921521 0.204847 8.59023e-18)
(0.659677 0.118811 -4.42977e-17)
(0.284739 0.0372393 5.15518e-17)
(1.10705 0.278601 -4.17322e-16)
(1.13663 0.295425 1.03229e-16)
(1.16674 0.309013 0)
(1.19774 0.318382 1.02108e-16)
(1.2293 0.323252 -3.45997e-23)
(1.26048 0.323437 -1.56112e-18)
(1.2904 0.318901 7.76599e-19)
(1.31814 0.309801 -4.98806e-17)
(1.34286 0.296459 4.97233e-17)
(1.3638 0.279447 -2.4615e-17)
(1.11783 0.266141 2.08122e-16)
(1.14507 0.280217 0)
(1.17264 0.291728 0)
(1.20096 0.299786 1.00374e-16)
(1.22998 0.304079 1.56932e-18)
(1.25886 0.304437 -7.7986e-19)
(1.2868 0.300807 7.75906e-19)
(1.31306 0.293291 4.86845e-17)
(1.3369 0.282122 -4.93049e-17)
(1.3575 0.267821 2.45999e-17)
(1.12807 0.255614 0)
(1.15267 0.26743 -1.02865e-16)
(1.1777 0.276855 1.01932e-16)
(1.20343 0.283441 -1.01127e-16)
(1.22993 0.286903 0)
(1.25649 0.287093 -7.80164e-19)
(1.28242 0.283961 -9.86029e-17)
(1.30708 0.277575 0)
(1.32988 0.268106 0)
(1.34995 0.256018 -2.46275e-17)
(1.13706 0.245403 0)
(1.15945 0.255209 1.21186e-21)
(1.18218 0.262854 -1.01849e-16)
(1.2055 0.268148 1.01088e-16)
(1.2296 0.270854 7.84661e-19)
(1.25388 0.270843 -1.00672e-16)
(1.27777 0.268072 -2.76752e-22)
(1.30075 0.262587 0)
(1.32236 0.254514 0)
(1.34172 0.244251 0)
(1.14446 0.235408 -1.03469e-16)
(1.165 0.243566 2.05185e-16)
(1.18575 0.249761 7.95028e-19)
(1.20696 0.253966 -1.0184e-16)
(1.2289 0.255999 -7.84671e-19)
(1.25107 0.255766 -9.99253e-17)
(1.27303 0.253238 1.5003e-16)
(1.29435 0.248448 -3.87358e-19)
(1.3147 0.241495 -4.90688e-17)
(1.33321 0.232715 -2.46836e-17)
(1.15037 0.225595 2.06548e-16)
(1.16927 0.232446 -1.02457e-16)
(1.1883 0.237495 1.01681e-16)
(1.20771 0.240815 1.00223e-16)
(1.22775 0.242282 1.0201e-16)
(1.24805 0.241835 9.91784e-17)
(1.26824 0.239465 -4.97817e-17)
(1.288 0.235204 -3.87684e-19)
(1.30709 0.229134 3.86457e-19)
(1.32467 0.221547 2.47113e-17)
(1.15493 0.21596 -1.03483e-16)
(1.17238 0.221754 -1.0192e-16)
(1.18991 0.225902 -1.01599e-16)
(1.20776 0.228524 -1.00975e-16)
(1.22616 0.229542 -9.9657e-17)
(1.24481 0.22892 9.84311e-17)
(1.26342 0.226668 -4.90342e-17)
(1.28175 0.222822 0)
(1.29961 0.217456 9.91105e-17)
(1.31626 0.210828 0)
(1.15832 0.206525 0)
(1.17446 0.211451 1.02185e-16)
(1.19067 0.214886 -1.01515e-16)
(1.20717 0.216965 7.88557e-19)
(1.22414 0.217639 -1.02012e-16)
(1.24135 0.216892 -1.00028e-16)
(1.25857 0.214745 5.0622e-17)
(1.2756 0.211239 -4.97077e-17)
(1.29232 0.206445 -9.92109e-17)
(1.30804 0.200599 0)
(1.16068 0.197313 -1.02692e-16)
(1.17565 0.201523 0)
(1.1907 0.204392 1.01432e-16)
(1.20601 0.206052 1.01687e-16)
(1.22174 0.206471 1.27115e-22)
(1.2377 0.205645 9.92799e-17)
(1.25369 0.203603 0)
(1.26955 0.200388 4.97494e-17)
(1.28523 0.19607 4.98496e-17)
(1.30007 0.190867 -2.49894e-17)
(1.16217 0.188347 1.025e-16)
(1.1761 0.191967 -1.01915e-16)
(1.19011 0.194383 1.01349e-16)
(1.20438 0.19572 -1.00073e-16)
(1.21902 0.195954 1.9932e-16)
(1.23387 0.195089 -9.85317e-17)
(1.24878 0.193157 -7.7977e-19)
(1.26361 0.1902 -3.88991e-19)
(1.27833 0.186288 -4.93178e-17)
(1.29235 0.181624 2.48237e-17)
(1.16293 0.179646 0)
(1.17592 0.182777 1.01781e-16)
(1.18901 0.184832 -1.01266e-16)
(1.20235 0.18592 -7.87669e-19)
(1.21603 0.186024 -9.88761e-17)
(1.22991 0.185151 -7.82271e-19)
(1.24387 0.183333 -7.80236e-19)
(1.25778 0.180612 7.78651e-19)
(1.27163 0.177053 4.97563e-17)
(1.28488 0.17285 2.4852e-17)
(1.16308 0.171224 1.02515e-16)
(1.17523 0.173951 -3.97061e-19)
(1.18749 0.175716 0)
(1.20001 0.176612 0)
(1.21284 0.176628 7.84731e-19)
(1.22586 0.17577 -5.16469e-17)
(1.23896 0.17407 1.35215e-23)
(1.25205 0.171565 5.02649e-17)
(1.26512 0.168321 3.8912e-19)
(1.27767 0.164516 -2.48801e-17)
(1.16274 0.16309 -1.01926e-16)
(1.17414 0.165482 -1.01512e-16)
(1.18565 0.167015 -1.011e-16)
(1.19742 0.167764 -7.87076e-19)
(1.20949 0.167722 1.33536e-23)
(1.22174 0.166896 5.00989e-17)
(1.23409 0.165314 7.81213e-19)
(1.24643 0.163011 1.01766e-22)
(1.2588 0.160048 0)
(1.2707 0.156594 0)
(1.162 0.155249 -1.02133e-16)
(1.17271 0.157365 2.03154e-16)
(1.18355 0.158709 1.01017e-16)
(1.19466 0.159346 0)
(1.20604 0.159269 -9.96632e-17)
(1.2176 0.158486 4.93328e-17)
(1.22926 0.157021 0)
(1.24094 0.154906 -5.03495e-17)
(1.25266 0.152199 -2.45642e-17)
(1.26398 0.149057 0)
(1.16093 0.147703 1.01943e-16)
(1.17103 0.149589 -1.01641e-16)
(1.18127 0.150782 0)
(1.19177 0.151333 9.98839e-17)
(1.20253 0.151238 1.00449e-16)
(1.21347 0.150504 -1.00266e-16)
(1.22451 0.149153 -4.92768e-17)
(1.23559 0.147214 0)
(1.24672 0.144739 2.49794e-17)
(1.25749 0.141877 0)
(1.15962 0.14045 1.01357e-16)
(1.16916 0.142145 0)
(1.17885 0.143215 0)
(1.1888 0.143701 -9.98463e-17)
(1.199 0.1436 -1.11962e-23)
(1.20937 0.142919 4.85826e-17)
(1.21985 0.141677 5.08724e-17)
(1.23038 0.139901 -3.90962e-19)
(1.24097 0.137639 1.95354e-19)
(1.25125 0.135029 1.95264e-19)
(1.15811 0.133485 -2.02338e-16)
(1.16715 0.135021 1.0098e-16)
(1.17634 0.13599 7.87257e-19)
(1.18579 0.136427 -7.85898e-19)
(1.19548 0.136329 -5.0225e-17)
(1.20533 0.135703 0)
(1.2153 0.134566 0)
(1.22533 0.132941 5.00857e-17)
(1.23542 0.130873 0)
(1.24524 0.128491 0)
(1.15645 0.126802 1.01376e-16)
(1.16503 0.128203 -1.01242e-16)
(1.17377 0.129091 7.86613e-19)
(1.18277 0.129491 -1.02127e-16)
(1.19199 0.129402 5.10101e-17)
(1.20137 0.12883 0)
(1.21087 0.127791 -7.83614e-19)
(1.22043 0.126306 -4.97362e-17)
(1.23007 0.124417 1.95752e-19)
(1.23946 0.122242 1.9571e-19)
(1.15469 0.120391 -1.01188e-16)
(1.16286 0.12168 3.93421e-19)
(1.17118 0.1225 -1.00605e-16)
(1.17976 0.122873 1.00518e-16)
(1.18855 0.122796 7.8477e-19)
(1.1975 0.122278 -7.84389e-19)
(1.20657 0.121332 4.93984e-17)
(1.21571 0.119976 7.83914e-19)
(1.22493 0.118249 0)
(1.23392 0.116263 0)
(1.15285 0.114243 -3.92696e-19)
(1.16064 0.115436 1.00976e-16)
(1.16859 0.116201 1.00522e-16)
(1.17678 0.116553 -1.01265e-16)
(1.18519 0.116492 5.10106e-17)
(1.19374 0.116025 0)
(1.20241 0.115165 -5.02134e-17)
(1.21116 0.113928 -3.92283e-19)
(1.21999 0.11235 3.92297e-19)
(1.22861 0.110537 0)
(1.15097 0.108346 3.92548e-19)
(1.15842 0.109458 -1.00844e-16)
(1.16602 0.110176 -1.0044e-16)
(1.17386 0.110513 1.00441e-16)
(1.1819 0.110469 -1.00452e-16)
(1.19009 0.110052 0)
(1.1984 0.109271 0)
(1.20678 0.108144 -3.92615e-19)
(1.21525 0.106703 -2.49362e-17)
(1.22353 0.105047 2.53332e-17)
(1.14907 0.10269 9.98449e-17)
(1.1562 0.103731 -9.99281e-17)
(1.16349 0.10441 1.00358e-16)
(1.171 0.104736 -5.09859e-17)
(1.17871 0.10471 7.84815e-19)
(1.18657 0.104339 0)
(1.19454 0.103633 -5.02754e-17)
(1.20259 0.102607 -3.92947e-19)
(1.21071 0.101291 2.55513e-17)
(1.21868 0.0997785 -2.51656e-17)
(1.14717 0.0972634 0)
(1.154 0.098243 1.00189e-16)
(1.161 0.0988881 -1.00276e-16)
(1.16822 0.0992058 5.09665e-17)
(1.17563 0.0991975 4.94415e-17)
(1.18317 0.0988697 0)
(1.19083 0.0982324 4.95204e-17)
(1.19857 0.0972991 3.93287e-19)
(1.20638 0.096099 1.96752e-19)
(1.21405 0.0947173 1.96833e-19)
(1.14527 0.0920538 3.90104e-19)
(1.15184 0.0929794 -3.90853e-19)
(1.15857 0.0935952 1.00194e-16)
(1.16552 0.0939066 7.83795e-19)
(1.17265 0.0939155 -5.02264e-17)
(1.17991 0.0936282 4.94993e-17)
(1.18728 0.0930543 -4.95509e-17)
(1.19472 0.0922064 2.40104e-17)
(1.20225 0.0911117 5.90853e-19)
(1.20964 0.0898501 -1.97059e-19)
(1.14341 0.0870501 9.92938e-17)
(1.14973 0.0879275 3.90342e-19)
(1.15622 0.0885173 0)
(1.16291 0.0888236 0)
(1.16978 0.0888488 2.38569e-23)
(1.17678 0.0885992 -5.03018e-17)
(1.18388 0.0880836 9.99499e-17)
(1.19106 0.0873141 3.93967e-19)
(1.19831 0.0863163 1.97155e-19)
(1.20545 0.0851648 1.28235e-17)
(1.14157 0.0822409 -9.91115e-17)
(1.14768 0.0830747 -3.89833e-19)
(1.15394 0.0836409 -5.00147e-17)
(1.1604 0.083943 0)
(1.16703 0.0839833 5.02266e-17)
(1.17378 0.0837683 0)
(1.18064 0.0833064 -4.9612e-17)
(1.18757 0.082609 -2.64168e-17)
(1.19457 0.0817 3.9471e-19)
(1.20147 0.0806494 1.41899e-23)
(1.13979 0.0776152 -9.97052e-17)
(1.14568 0.0784089 3.89324e-19)
(1.15174 0.0789535 4.99737e-17)
(1.15799 0.0792515 -7.82894e-19)
(1.16439 0.0793057 7.84794e-19)
(1.17092 0.0791224 0)
(1.17755 0.0787097 -7.87975e-19)
(1.18425 0.0780784 3.94619e-19)
(1.19102 0.0772511 1.97559e-19)
(1.19769 0.0762931 -1.24576e-17)
(1.13806 0.0731622 9.87479e-17)
(1.14376 0.0739186 3.88816e-19)
(1.14963 0.0744427 -7.80196e-19)
(1.15568 0.0747366 1.56519e-18)
(1.16188 0.0748032 -7.84794e-19)
(1.1682 0.0746488 0)
(1.17461 0.0742812 -2.52309e-17)
(1.1811 0.0737106 0)
(1.18765 0.0729583 0)
(1.19412 0.0720853 1.26699e-17)
(1.13638 0.0688715 4.94767e-17)
(1.14191 0.0695928 0)
(1.1476 0.0700972 0)
(1.15347 0.0703866 -7.82292e-19)
(1.15948 0.0704641 -4.94418e-17)
(1.16561 0.0703359 0)
(1.17183 0.0700094 2.60354e-17)
(1.17812 0.0694945 -1.18585e-18)
(1.18446 0.0688111 3.95927e-19)
(1.19074 0.0680162 -1.26845e-17)
(1.13477 0.0647332 -9.91581e-17)
(1.14015 0.0654208 3.87803e-19)
(1.14567 0.065906 7.78918e-19)
(1.15137 0.0661903 -5.16116e-17)
(1.15721 0.066277 1.02023e-16)
(1.16316 0.0661724 -7.87283e-19)
(1.1692 0.0658835 2.5262e-17)
(1.1753 0.0654196 -3.95618e-19)
(1.18146 0.0647995 1.98168e-19)
(1.18755 0.0640766 1.98425e-19)
(1.13323 0.0607375 4.89107e-17)
(1.13846 0.0613926 3.87299e-19)
(1.14384 0.0618587 0)
(1.14938 0.0621371 4.92466e-17)
(1.15506 0.0622316 -4.94417e-17)
(1.16084 0.0621479 2.52014e-17)
(1.16671 0.0618932 2.12467e-24)
(1.17264 0.061476 -3.95954e-19)
(1.17863 0.0609142 3.96741e-19)
(1.18456 0.0602574 0)
(1.13176 0.0568752 -3.84419e-19)
(1.13686 0.0574984 3.86795e-19)
(1.1421 0.0579453 0)
(1.1475 0.0582171 -5.00089e-17)
(1.15303 0.0583176 7.84784e-19)
(1.15866 0.0582526 -5.12073e-17)
(1.16437 0.0580288 -2.52932e-17)
(1.17015 0.0576545 -2.5759e-17)
(1.17597 0.0571463 1.98576e-19)
(1.18174 0.0565504 1.98885e-19)
(1.13037 0.0531373 -4.94996e-17)
(1.13534 0.0537291 4.98314e-17)
(1.14045 0.0541565 0)
(1.14572 0.0544208 5.07707e-17)
(1.15111 0.0545258 -7.84788e-19)
(1.15661 0.0544772 2.52181e-17)
(1.16218 0.0542813 0)
(1.1678 0.0539461 2.49876e-17)
(1.17348 0.0534872 5.96338e-19)
(1.1791 0.0529475 -1.99115e-19)
(1.12905 0.0495152 4.86434e-17)
(1.13391 0.0500757 3.85746e-19)
(1.13891 0.0504833 7.76366e-19)
(1.14406 0.0507391 -7.80787e-19)
(1.14932 0.050847 0)
(1.15468 0.0508126 2.52265e-17)
(1.16012 0.050642 -2.61158e-17)
(1.16561 0.0503426 2.58028e-17)
(1.17115 0.0499291 1.98986e-19)
(1.17664 0.0494413 1.29574e-17)
(1.12782 0.0460007 -4.89371e-17)
(1.13257 0.0465299 -4.93168e-17)
(1.13746 0.0469171 0)
(1.1425 0.0471635 0)
(1.14765 0.0472729 0)
(1.15289 0.0472507 -5.04697e-17)
(1.15821 0.0471027 7.91872e-19)
(1.16357 0.0468361 -2.66193e-17)
(1.16898 0.0464644 3.9838e-19)
(1.17434 0.0460244 -1.27729e-17)
(1.12666 0.0425857 -3.81579e-19)
(1.13132 0.0430836 3.84789e-19)
(1.13611 0.0434499 -7.75093e-19)
(1.14105 0.0436858 7.8018e-19)
(1.14609 0.0437953 7.84774e-19)
(1.15122 0.0437834 -7.8885e-19)
(1.15643 0.0436557 2.45633e-17)
(1.16168 0.043419 3.97646e-19)
(1.16696 0.0430858 3.98792e-19)
(1.17221 0.0426901 0)
(1.12559 0.0392627 4.83784e-17)
(1.13016 0.039729 3.84289e-19)
(1.13486 0.0400738 2.47827e-17)
(1.1397 0.0402983 7.79871e-19)
(1.14465 0.0404064 -5.04287e-24)
(1.14968 0.0404031 -7.89112e-19)
(1.15478 0.0402936 0)
(1.15992 0.0400841 0)
(1.1651 0.0397865 1.27745e-17)
(1.17025 0.0394318 0)
(1.12459 0.0360244 3.80239e-19)
(1.12908 0.0364588 -3.83791e-19)
(1.13371 0.0367813 -2.55362e-17)
(1.13846 0.0369935 4.83857e-24)
(1.14332 0.037099 7.84771e-19)
(1.14826 0.0371026 2.526e-17)
(1.15326 0.0370092 2.5387e-17)
(1.15831 0.0368246 -3.98319e-19)
(1.16339 0.0365598 -1.23881e-17)
(1.16844 0.0362431 0)
(1.12368 0.0328637 -3.79549e-19)
(1.1281 0.0332657 3.83294e-19)
(1.13265 0.0335654 -2.4742e-17)
(1.13732 0.0337643 0)
(1.1421 0.033866 0)
(1.14696 0.0338749 0)
(1.15187 0.0337958 -2.54026e-17)
(1.15683 0.033634 -1.31558e-17)
(1.16182 0.0333995 4.00032e-19)
(1.16678 0.0331182 0)
(1.12285 0.0297738 -3.78862e-19)
(1.1272 0.0301429 3.82798e-19)
(1.13169 0.0304191 2.39492e-17)
(1.13629 0.0306038 4.6497e-24)
(1.14099 0.0307005 7.84761e-19)
(1.14577 0.0307134 0)
(1.15061 0.0306469 7.9432e-19)
(1.15549 0.030506 1.1571e-17)
(1.16039 0.0302996 -1.24138e-17)
(1.16528 0.0300511 0)
(1.12209 0.026748 0)
(1.12639 0.0270838 2.44673e-17)
(1.13082 0.0273357 2.47014e-17)
(1.13536 0.0275053 -7.78654e-19)
(1.13999 0.027596 7.84755e-19)
(1.14471 0.0276117 0)
(1.14948 0.0275562 1.35118e-17)
(1.15428 0.0274344 -1.19802e-18)
(1.15911 0.0272541 1.3028e-17)
(1.16392 0.0270363 2.00977e-19)
(1.12142 0.0237799 -3.77492e-19)
(1.12567 0.0240816 -2.40538e-17)
(1.13004 0.0243086 -2.39098e-17)
(1.13453 0.0244624 -4.49787e-24)
(1.1391 0.0245462 -7.8475e-19)
(1.14375 0.0245634 0)
(1.14846 0.0245177 -1.35202e-17)
(1.1532 0.0244133 3.99685e-19)
(1.15796 0.0242574 6.01917e-19)
(1.1627 0.0240683 -2.01212e-19)
(1.12083 0.020863 3.7681e-19)
(1.12503 0.0211302 -3.81314e-19)
(1.12936 0.0213316 0)
(1.13379 0.0214689 0)
(1.13832 0.0215448 0)
(1.14291 0.0215626 -1.26508e-17)
(1.14756 0.0215255 -1.27327e-17)
(1.15225 0.0214372 -4.00022e-19)
(1.15695 0.0213039 2.00849e-19)
(1.16163 0.0211419 2.01448e-19)
(1.12031 0.0179911 -3.7613e-19)
(1.12448 0.0182231 3.80821e-19)
(1.12876 0.0183984 1.30903e-17)
(1.13315 0.0185185 -1.32216e-17)
(1.13764 0.0185859 0)
(1.14219 0.0186034 2.531e-17)
(1.14679 0.0185739 1.27406e-17)
(1.15142 0.0185004 6.00549e-18)
(1.15606 0.0183884 -6.23275e-18)
(1.1607 0.0182518 2.01684e-19)
(1.11987 0.0151578 -1.23899e-17)
(1.12401 0.0153542 1.25508e-17)
(1.12826 0.0155029 -1.23102e-17)
(1.13261 0.0156053 2.41004e-17)
(1.13706 0.0156636 7.84729e-19)
(1.14156 0.0156801 -2.53183e-17)
(1.14612 0.0156572 6.37423e-18)
(1.15071 0.0155975 -6.81204e-18)
(1.15531 0.0155056 6.84304e-18)
(1.1599 0.015393 0)
(1.11951 0.012357 1.23676e-17)
(1.12362 0.0125174 -3.79842e-19)
(1.12784 0.0126392 -7.68751e-19)
(1.13217 0.0127236 -1.16569e-17)
(1.13658 0.0127722 0)
(1.14105 0.0127871 1.26633e-17)
(1.14557 0.01277 -7.17544e-18)
(1.15012 0.0127232 -5.21367e-18)
(1.15469 0.0126502 -6.04428e-19)
(1.15924 0.0125604 2.02158e-19)
(1.11922 0.0095826 -1.19713e-17)
(1.12331 0.00970687 -2.19161e-24)
(1.12751 0.00980157 7.6812e-19)
(1.13181 0.00986757 -1.55364e-18)
(1.13619 0.00990618 1.56942e-18)
(1.14064 0.00991883 -7.12544e-18)
(1.14514 0.00990693 5.58435e-18)
(1.14966 0.00987205 3.61256e-18)
(1.15419 0.00981698 3.83203e-18)
(1.15871 0.00974896 -2.02396e-19)
(1.119 0.0068286 1.15763e-17)
(1.12307 0.00691658 -1.17446e-17)
(1.12726 0.00698401 0)
(1.13155 0.00703141 0)
(1.13591 0.00705961 7.84701e-19)
(1.14034 0.00706954 5.54382e-18)
(1.14481 0.00706216 -6.38605e-18)
(1.14931 0.00703853 2.81218e-18)
(1.15382 0.0070006 -3.02845e-18)
(1.15831 0.00695344 2.02634e-19)
(1.11886 0.00408909 3.72758e-19)
(1.12292 0.00414057 -3.78372e-19)
(1.1271 0.00418043 3.06744e-18)
(1.13137 0.00420884 -7.76205e-19)
(1.13572 0.00422615 3.13878e-18)
(1.14014 0.00423287 -2.37671e-18)
(1.14459 0.00422947 0)
(1.14907 0.00421655 -4.02083e-19)
(1.15357 0.00419522 4.04217e-19)
(1.15805 0.0041684 -8.11489e-19)
(1.11878 0.00136004 -3.73116e-19)
(1.12285 0.001376 3.7896e-19)
(1.12702 0.00138865 -3.84236e-18)
(1.13129 0.00139791 7.78233e-19)
(1.13563 0.00140384 -1.5742e-18)
(1.14004 0.00140656 1.58997e-18)
(1.14448 0.00140618 0)
(1.14896 0.00140283 -4.03734e-19)
(1.15344 0.00139683 2.02985e-19)
(1.15791 0.00138908 1.01892e-18)
(2.50352 0.0629026 0)
(1.17022 0.0078131 0)
(0.946767 0.0155037 0)
(1.0679 0.0429392 0)
(1.09691 0.0528846 0)
(1.08576 0.0586217 0)
(1.08073 0.0671 0)
(1.07999 0.0767527 0)
(1.07884 0.0866562 0)
(1.07714 0.097117 0)
(1.07542 0.108419 0)
(1.07388 0.120674 0)
(1.0726 0.133979 0)
(1.07172 0.148451 0)
(1.07141 0.164202 0)
(1.07192 0.181327 0)
(1.0735 0.199873 0)
(1.07654 0.219783 0)
(1.08158 0.24072 0)
(1.08819 0.261272 0)
(2.51495 0.0389795 0)
(1.14516 0.0148407 0)
(0.952011 0.0227409 0)
(1.07644 0.0428251 0)
(1.09846 0.0525588 0)
(1.08665 0.0595124 0)
(1.08302 0.0682237 0)
(1.08291 0.0778133 0)
(1.08216 0.0877119 0)
(1.08105 0.0981468 0)
(1.08009 0.109333 0)
(1.07936 0.121369 0)
(1.07898 0.134339 0)
(1.07908 0.148334 0)
(1.07986 0.163438 0)
(1.08153 0.179707 0)
(1.08436 0.197137 0)
(1.08874 0.215575 0)
(1.09507 0.234461 0)
(1.10242 0.252153 0)
(2.5198 0.0215678 0)
(1.13035 0.0204867 0)
(0.949972 0.0283703 0)
(1.0778 0.0421815 0)
(1.09797 0.0518514 0)
(1.08652 0.0599929 0)
(1.08404 0.0688991 0)
(1.08467 0.0783796 0)
(1.08452 0.0882265 0)
(1.0841 0.0985867 0)
(1.08389 0.109605 0)
(1.08398 0.121367 0)
(1.08445 0.133944 0)
(1.08546 0.147404 0)
(1.08719 0.161802 0)
(1.08984 0.177157 0)
(1.09367 0.193424 0)
(1.09898 0.210404 0)
(1.10612 0.227495 0)
(1.11425 0.24319 0)
(2.52312 0.0137459 0)
(1.12227 0.0208512 0)
(0.946382 0.029494 0)
(1.07659 0.0410651 0)
(1.09658 0.0509443 0)
(1.08565 0.0598146 0)
(1.08411 0.0689222 0)
(1.08551 0.0783989 0)
(1.08605 0.0882199 0)
(1.08635 0.0984937 0)
(1.0869 0.109331 0)
(1.08776 0.120808 0)
(1.08903 0.132986 0)
(1.09087 0.145914 0)
(1.09344 0.159623 0)
(1.09693 0.174108 0)
(1.10156 0.189301 0)
(1.10758 0.204992 0)
(1.11528 0.22062 0)
(1.12399 0.234774 0)
(2.52615 0.0104376 0)
(1.11798 0.0198435 0)
(0.943513 0.028983 0)
(1.07504 0.0397473 0)
(1.09506 0.0497296 0)
(1.0845 0.0590097 0)
(1.08366 0.068307 0)
(1.08575 0.0778286 0)
(1.08696 0.0876282 0)
(1.08795 0.0978021 0)
(1.0892 0.108445 0)
(1.09078 0.119625 0)
(1.09279 0.131393 0)
(1.09536 0.143784 0)
(1.09867 0.156814 0)
(1.10287 0.170461 0)
(1.10815 0.184645 0)
(1.11473 0.19916 0)
(1.12282 0.213489 0)
(1.13192 0.226308 0)
(2.52928 0.00902907 0)
(1.11594 0.0189707 0)
(0.94167 0.0281531 0)
(1.07384 0.0384058 0)
(1.09384 0.0483248 0)
(1.08346 0.0577892 0)
(1.08309 0.067203 0)