/*--------------------------------*- C++ -*----------------------------------*\
  =========                 |
  \\      /  F ield         | OpenFOAM: The Open Source CFD Toolbox
   \\    /   O peration     | Website:  https://openfoam.org
    \\  /    A nd           | Version:  6
     \\/     M anipulation  |
\*---------------------------------------------------------------------------*/
FoamFile
{
    version     2.0;
    format      ascii;
    class       surfaceScalarField;
    location    "0.25";
    object      phi;
}
// * * * * * * * * * * * * * * * * * * * * * * * * * * * * * * * * * * * * * //

dimensions      [0 3 -1 0 0 0 0];

internalField   nonuniform List<scalar> 
11030
(
0.000112615
-2.2033e-07
0.000112742
-1.26968e-07
0.000112803
-6.06741e-08
0.000112796
7.03129e-09
0.000112711
8.45587e-08
0.000112545
1.66304e-07
0.000112294
2.51254e-07
0.000111952
3.41478e-07
0.000111514
4.38733e-07
0.000110969
5.44404e-07
0.000110309
6.60082e-07
0.000109522
7.87692e-07
0.000108592
9.29464e-07
0.000107504
1.0879e-06
0.000106238
1.26572e-06
0.000104773
1.46555e-06
0.000103084
1.68925e-06
0.000101147
1.9363e-06
9.89465e-05
2.20084e-06
2.46237e-06
9.64842e-05
0.000112565
-3.86516e-07
0.000112657
-2.19242e-07
0.000112681
-8.44558e-08
0.000112629
5.91619e-08
0.000112498
2.15702e-07
0.000112285
3.7922e-07
0.000111986
5.50272e-07
0.000111595
7.32346e-07
0.000111105
9.28481e-07
0.000110508
1.1415e-06
0.000109793
1.3747e-06
0.000108949
1.63194e-06
0.000107961
1.91769e-06
0.000106812
2.23693e-06
0.000105483
2.59501e-06
0.000103951
2.99711e-06
0.000102194
3.44678e-06
0.000100187
3.94288e-06
9.79142e-05
4.47363e-06
5.00258e-06
9.5374e-05
0.00011253
-5.09509e-07
0.000112568
-2.57378e-07
0.000112537
-5.41457e-08
0.000112433
1.63308e-07
0.00011225
3.99095e-07
0.000111984
6.45138e-07
0.000111631
9.02848e-07
0.000111186
1.17724e-06
0.000110642
1.47268e-06
0.00010999
1.79342e-06
0.000109221
2.14437e-06
0.000108321
2.5313e-06
0.000107278
2.96081e-06
0.000106075
3.44026e-06
0.000104692
3.97751e-06
0.000103109
4.58015e-06
0.000101303
5.25341e-06
9.92499e-05
5.99567e-06
9.69336e-05
6.78998e-06
7.58693e-06
9.43492e-05
0.000112485
-5.77264e-07
0.000112466
-2.38142e-07
0.000112377
3.50111e-08
0.000112214
3.26094e-07
0.000111973
6.40624e-07
0.000111649
9.6886e-07
0.000111239
1.31285e-06
0.000110737
1.67898e-06
0.000110137
2.07291e-06
0.00010943
2.50021e-06
0.000108607
2.96733e-06
0.000107657
3.4818e-06
0.000106565
4.05218e-06
0.000105318
4.68799e-06
0.000103896
5.39936e-06
0.00010228
6.19604e-06
0.000100448
7.08481e-06
9.83804e-05
8.06366e-06
9.60595e-05
9.11094e-06
1.0167e-05
9.34794e-05
0.000112436
-5.81961e-07
0.000112353
-1.54982e-07
0.000112199
1.88615e-07
0.000111972
5.52786e-07
0.000111668
9.44981e-07
0.000111283
1.35427e-06
0.000110812
1.78323e-06
0.000110252
2.23946e-06
0.000109595
2.72978e-06
0.000108834
3.26095e-06
0.000107961
3.84081e-06
0.000106964
4.47841e-06
0.000105832
5.18401e-06
0.000104551
5.96894e-06
0.000103106
6.84522e-06
0.000101477
7.82438e-06
9.96476e-05
8.91443e-06
9.75983e-05
1.01129e-05
9.53155e-05
1.13938e-05
1.26899e-05
9.27925e-05
0.000112381
-5.16118e-07
0.000112228
-1.42372e-09
0.000112004
4.12069e-07
0.000111709
8.48146e-07
0.000111338
1.31632e-06
0.000110887
1.80478e-06
0.000110354
2.31657e-06
0.000109733
2.86025e-06
0.000109019
3.44364e-06
0.000108205
4.07457e-06
0.000107284
4.76198e-06
0.000106247
5.51618e-06
0.000105082
6.34873e-06
0.000103778
7.27235e-06
0.000102323
8.30042e-06
0.000100702
9.44568e-06
9.88994e-05
1.0717e-05
9.6901e-05
1.21113e-05
9.46961e-05
1.35987e-05
1.51079e-05
9.2278e-05
0.000112321
-3.72221e-07
0.000112091
2.28664e-07
0.000111793
7.10241e-07
0.000111424
1.21652e-06
0.000110982
1.7585e-06
0.000110463
2.32361e-06
0.000109865
2.91533e-06
0.000109182
3.54295e-06
0.00010841
4.2151e-06
0.000107544
4.94041e-06
0.000106578
5.7287e-06
0.000105503
6.59113e-06
0.000104311
7.54012e-06
0.000102995
8.58922e-06
0.000101542
9.75251e-06
9.99448e-05
1.10433e-05
9.81909e-05
1.24709e-05
9.62705e-05
1.40316e-05
9.41761e-05
1.56932e-05
1.73838e-05
9.19002e-05
0.000112254
-1.42201e-07
0.000111942
5.40776e-07
0.000111565
1.08695e-06
0.00011112
1.66185e-06
0.000110603
2.27533e-06
0.000110012
2.9141e-06
0.000109345
3.58228e-06
0.000108599
4.28969e-06
0.000107768
5.04549e-06
0.00010685
5.85888e-06
0.000105838
6.74022e-06
0.000104728
7.7011e-06
0.000103514
8.75428e-06
0.00010219
9.91344e-06
0.00010075
1.11927e-05
9.91879e-05
1.26051e-05
9.74989e-05
1.41599e-05
9.56771e-05
1.58534e-05
9.37179e-05
1.76524e-05
1.94941e-05
9.16076e-05
0.000112177
1.84311e-07
0.00011178
9.38075e-07
0.000111322
1.54414e-06
0.000110796
2.18805e-06
0.0001102
2.87112e-06
0.000109534
3.58026e-06
0.000108795
4.3212e-06
0.000107981
5.10406e-06
0.000107088
5.93815e-06
0.000106114
6.83303e-06
0.000105055
7.79923e-06
0.000103908
8.8483e-06
0.00010267
9.99268e-06
0.000101338
1.12454e-05
9.99106e-05
1.26197e-05
9.83883e-05
1.41274e-05
9.67715e-05
1.57768e-05
9.50601e-05
1.75648e-05
9.32537e-05
1.94588e-05
2.13999e-05
9.13479e-05
0.000112084
6.24295e-07
0.000111611
1.41091e-06
0.000111074
2.08165e-06
0.000110462
2.79983e-06
0.000109783
3.54988e-06
0.000109038
4.32549e-06
0.000108224
5.13536e-06
0.000107338
5.98922e-06
0.00010638
6.89627e-06
0.000105347
7.8662e-06
0.000104237
8.90942e-06
0.000103048
1.0037e-05
0.000101781
1.12605e-05
0.000100435
1.25914e-05
9.90136e-05
1.40406e-05
9.75237e-05
1.56173e-05
9.59746e-05
1.73259e-05
9.43768e-05
1.91626e-05
9.27233e-05
2.11122e-05
9.10145e-05
2.31087e-05
8.63211e-05
1.01631e-05
7.60149e-05
1.03062e-05
6.55523e-05
1.04625e-05
5.49302e-05
1.06221e-05
4.4166e-05
1.07642e-05
3.33361e-05
1.08299e-05
2.26561e-05
1.068e-05
1.26354e-05
1.00208e-05
4.33228e-06
8.30309e-06
4.33228e-06
8.53081e-05
2.0229e-05
7.50912e-05
2.05231e-05
6.47189e-05
2.08348e-05
5.4191e-05
2.115e-05
4.35288e-05
2.14264e-05
3.2814e-05
2.15447e-05
2.22644e-05
2.12296e-05
1.23868e-05
1.98984e-05
4.27375e-06
1.64161e-05
8.60603e-06
8.43865e-05
3.01917e-05
7.42647e-05
3.06449e-05
6.39854e-05
3.11141e-05
5.35508e-05
3.15847e-05
4.29849e-05
3.19923e-05
3.2373e-05
3.21566e-05
2.19376e-05
3.1665e-05
1.21889e-05
2.96471e-05
4.1944e-06
2.44106e-05
1.28004e-05
8.36094e-05
4.00618e-05
7.35742e-05
4.068e-05
6.33793e-05
4.1309e-05
5.30278e-05
4.19362e-05
4.25447e-05
4.24754e-05
3.20178e-05
4.26835e-05
2.16736e-05
4.20092e-05
1.20254e-05
3.92953e-05
4.13009e-06
3.23058e-05
1.69305e-05
8.30002e-05
4.98541e-05
7.30364e-05
5.06439e-05
6.29109e-05
5.14345e-05
5.26259e-05
5.22212e-05
4.22062e-05
5.28951e-05
3.17417e-05
5.3148e-05
2.14635e-05
5.22874e-05
1.18902e-05
4.88686e-05
4.07466e-06
4.01214e-05
2.10052e-05
8.2547e-05
5.95851e-05
7.26375e-05
6.05534e-05
6.25641e-05
6.15079e-05
5.23265e-05
6.24588e-05
4.19484e-05
6.32732e-05
3.15226e-05
6.35738e-05
2.12865e-05
6.25236e-05
1.17674e-05
5.83877e-05
4.01977e-06
4.7869e-05
2.5025e-05
8.22119e-05
6.92735e-05
7.23384e-05
7.04269e-05
6.2299e-05
7.15473e-05
5.20881e-05
7.26697e-05
4.17293e-05
7.36319e-05
3.132e-05
7.39832e-05
2.11073e-05
7.27362e-05
1.16316e-05
6.78634e-05
3.95253e-06
5.55481e-05
2.89775e-05
8.19338e-05
7.89473e-05
7.20739e-05
8.02867e-05
6.20489e-05
8.15723e-05
5.18433e-05
8.28754e-05
4.14832e-05
8.3992e-05
3.1074e-05
8.43924e-05
2.08769e-05
8.29333e-05
1.14485e-05
7.72917e-05
3.85598e-06
6.31406e-05
3.28335e-05
8.16113e-05
8.8684e-05
7.17357e-05
9.01623e-05
6.17029e-05
9.1605e-05
5.14839e-05
9.30944e-05
4.11129e-05
9.4363e-05
3.0704e-05
9.48014e-05
2.05337e-05
9.31036e-05
1.11751e-05
8.66503e-05
3.70597e-06
7.06098e-05
3.65394e-05
8.10083e-05
9.86902e-05
7.11251e-05
0.000100045
6.10678e-05
0.000101662
5.08402e-05
0.000103322
4.04809e-05
0.000104722
3.01057e-05
0.000105176
2.00012e-05
0.000103208
1.07501e-05
9.59015e-05
3.45279e-06
7.79071e-05
3.99922e-05
3.1154e-05
0.000104018
-3.64822e-05
2.5853e-05
0.000105346
2.06356e-05
0.00010688
1.55472e-05
0.00010841
1.07317e-05
0.000109538
6.43919e-06
0.000109469
3.01391e-06
0.000106633
8.05678e-07
9.81097e-05
-4.96853e-08
7.87625e-05
3.99425e-05
2.54294e-05
0.000108815
-3.02256e-05
2.06268e-05
0.000110149
1.59134e-05
0.000111593
1.13947e-05
0.000112929
7.2311e-06
0.000113702
3.67122e-06
0.000113029
1.03139e-06
0.000109273
-3.94672e-07
9.95358e-05
-5.52045e-07
7.89198e-05
3.93905e-05
1.97699e-05
0.00011311
-2.40654e-05
1.54767e-05
0.000114442
1.13008e-05
0.000115769
7.37295e-06
0.000116857
3.87465e-06
0.0001172
1.05499e-06
0.000115848
-7.9645e-07
0.000111125
-1.44676e-06
0.000100186
-9.3977e-07
7.84128e-05
3.84507e-05
1.42382e-05
0.000116909
-1.80367e-05
1.0469e-05
0.000118211
6.84873e-06
0.000119389
3.52782e-06
0.000120178
7.03546e-07
0.000120024
-1.37661e-06
0.000117929
-2.452e-06
0.0001122
-2.35644e-06
0.000100091
-1.24596e-06
7.73023e-05
3.72048e-05
8.88099e-06
0.000120212
-1.21844e-05
5.64065e-06
0.000121452
2.58776e-06
0.000122442
-1.14266e-07
0.00012288
-2.25894e-06
0.000122169
-3.60594e-06
0.000119276
-3.92886e-06
0.000112523
-3.13305e-06
9.92947e-05
-1.4864e-06
7.56557e-05
3.57184e-05
3.73348e-06
0.000123025
-6.54691e-06
1.02129e-06
0.000124164
-1.45932e-06
0.000124923
-3.53659e-06
0.000124957
-5.00148e-06
0.000123634
-5.62744e-06
0.000119902
-5.22849e-06
0.000112124
-3.78493e-06
9.78511e-05
-1.67001e-06
7.35408e-05
3.40484e-05
-1.17919e-06
0.000125356
-1.1515e-06
-3.36756e-06
0.000126352
-5.27604e-06
0.000126831
-6.72833e-06
0.000126409
-7.51889e-06
0.000124424
-7.4416e-06
0.000119824
-6.35687e-06
0.000111039
-4.32168e-06
9.5816e-05
-1.80524e-06
7.10243e-05
3.22431e-05
-5.84261e-06
0.000127214
3.98514e-06
-7.51354e-06
0.000128023
-8.85319e-06
0.000128171
-9.68418e-06
0.00012724
-9.81004e-06
0.00012455
-9.05169e-06
0.000119066
-7.32147e-06
0.000109309
-4.75316e-06
9.32477e-05
-1.89971e-06
6.81709e-05
3.03434e-05
-1.02511e-05
0.00012861
8.85481e-06
-1.14114e-05
0.000129184
-1.21854e-05
0.000128945
-1.2399e-05
0.000127454
-1.1871e-05
0.000124022
-1.04569e-05
0.000117652
-8.1268e-06
0.000106979
-5.08868e-06
9.02095e-05
-1.96158e-06
6.50438e-05
2.83818e-05
-1.44058e-05
1.34703e-05
0.000129545
-1.5049e-05
0.000129827
-1.52497e-05
0.000129146
-1.48435e-05
0.000127048
-1.36736e-05
0.000122852
-1.16391e-05
0.000115617
-8.77085e-06
0.000104111
-5.34141e-06
8.67801e-05
-2.00828e-06
6.17107e-05
2.63735e-05
7.98663e-05
-3.71371e-05
-7.92113e-05
8.07307e-05
-3.109e-05
8.17769e-05
-2.51116e-05
8.29511e-05
-1.92109e-05
8.42117e-05
-1.3445e-05
8.55112e-05
-7.8464e-06
8.68e-05
-2.44031e-06
8.803e-05
2.75515e-06
8.91569e-05
7.72791e-06
1.24935e-05
9.01337e-05
8.05066e-05
-3.76089e-05
-8.00348e-05
8.11679e-05
-3.17513e-05
8.20109e-05
-2.59547e-05
8.29925e-05
-2.01924e-05
8.40742e-05
-1.45268e-05
8.52155e-05
-8.98762e-06
8.63736e-05
-3.5984e-06
8.75071e-05
1.62165e-06
8.8577e-05
6.65796e-06
1.1526e-05
8.95444e-05
8.10544e-05
-3.78793e-05
-8.07841e-05
8.15291e-05
-3.2226e-05
8.21817e-05
-2.66074e-05
8.29794e-05
-2.09901e-05
8.38882e-05
-1.54356e-05
8.48733e-05
-9.9727e-06
8.58988e-05
-4.62389e-06
8.69298e-05
5.90678e-07
8.7933e-05
5.65476e-06
1.05819e-05
8.88771e-05
8.15279e-05
-3.80005e-05
-8.14067e-05
8.18391e-05
-3.25371e-05
8.2319e-05
-2.70873e-05
8.29441e-05
-2.16152e-05
8.36871e-05
-1.61786e-05
8.45196e-05
-1.08051e-05
8.54122e-05
-5.51655e-06
8.63363e-05
-3.33419e-07
8.7264e-05
4.72705e-06
9.67566e-06
8.81703e-05
8.1919e-05
-3.80019e-05
-8.19175e-05
8.20916e-05
-3.27098e-05
8.242e-05
-2.74156e-05
8.28893e-05
-2.20845e-05
8.34792e-05
-1.67685e-05
8.41678e-05
-1.14937e-05
8.4932e-05
-6.28076e-06
8.57488e-05
-1.15025e-06
8.65955e-05
3.88036e-06
8.81931e-06
8.74519e-05
8.22268e-05
-3.78976e-05
-8.23311e-05
8.22795e-05
-3.27625e-05
8.24764e-05
-2.76125e-05
8.28089e-05
-2.2417e-05
8.32623e-05
-1.72219e-05
8.382e-05
-1.20515e-05
8.44647e-05
-6.92541e-06
8.51782e-05
-1.86381e-06
8.59425e-05
3.11608e-06
8.02038e-06
8.67415e-05
8.24583e-05
-3.76979e-05
-8.2658e-05
8.24051e-05
-3.27093e-05
8.24878e-05
-2.76952e-05
8.27012e-05
-2.26304e-05
8.30347e-05
-1.75554e-05
8.3476e-05
-1.24928e-05
8.40121e-05
-7.46154e-06
8.46293e-05
-2.48095e-06
8.53132e-05
2.43216e-06
7.28229e-06
8.60513e-05
8.2622e-05
-3.74115e-05
-8.29083e-05
8.24749e-05
-3.25622e-05
8.24577e-05
-2.76781e-05
8.25674e-05
-2.27401e-05
8.27963e-05
-1.77842e-05
8.31351e-05
-1.28317e-05
8.35743e-05
-7.90069e-06
8.41033e-05
-3.00996e-06
8.47112e-05
1.8243e-06
6.60533e-06
8.53881e-05
8.27266e-05
-3.70467e-05
-8.30914e-05
8.24957e-05
-3.23314e-05
8.23909e-05
-2.75732e-05
8.24102e-05
-2.27593e-05
8.25478e-05
-1.79218e-05
8.27969e-05
-1.30808e-05
8.31503e-05
-8.254e-06
8.35999e-05
-3.45956e-06
8.41373e-05
1.2869e-06
5.98755e-06
8.4755e-05
8.27804e-05
-3.66109e-05
-8.32162e-05
8.24747e-05
-3.20258e-05
8.22926e-05
-2.73911e-05
8.22327e-05
-2.26995e-05
8.22907e-05
-1.79798e-05
8.24613e-05
-1.32515e-05
8.2739e-05
-8.5317e-06
8.31177e-05
-3.83827e-06
8.35909e-05
8.13743e-07
5.4256e-06
8.41528e-05
8.27908e-05
-3.61111e-05
-8.32907e-05
8.24184e-05
-3.16534e-05
8.21679e-05
-2.71406e-05
8.20385e-05
-2.257e-05
8.20268e-05
-1.79681e-05
8.21287e-05
-1.33534e-05
8.23399e-05
-8.74289e-06
8.26556e-05
-4.15402e-06
8.30708e-05
3.98586e-07
4.91537e-06
8.3581e-05
8.27649e-05
-3.55538e-05
-8.33222e-05
8.23328e-05
-3.12213e-05
8.20217e-05
-2.68294e-05
8.1831e-05
-2.23793e-05
8.1758e-05
-1.78952e-05
8.17996e-05
-1.3395e-05
8.19523e-05
-8.89558e-06
8.22123e-05
-4.414e-06
8.25754e-05
3.54534e-08
4.45246e-06
8.30383e-05
8.27085e-05
-3.49448e-05
-8.33174e-05
8.22233e-05
-3.07361e-05
8.18583e-05
-2.64644e-05
8.16134e-05
-2.21344e-05
8.14865e-05
-1.77683e-05
8.1475e-05
-1.33835e-05
8.15761e-05
-8.99667e-06
8.17867e-05
-4.62457e-06
8.21033e-05
-2.81164e-07
4.0325e-06
8.25233e-05
8.26272e-05
-3.42898e-05
-8.32822e-05
8.20945e-05
-3.02035e-05
8.16818e-05
-2.60517e-05
8.13889e-05
-2.18415e-05
8.12143e-05
-1.75937e-05
8.11559e-05
-1.33251e-05
8.12114e-05
-9.05215e-06
8.13781e-05
-4.7913e-06
8.16532e-05
-5.56238e-07
3.65133e-06
8.20343e-05
8.25256e-05
-3.35935e-05
-8.32218e-05
8.19507e-05
-2.96286e-05
8.14954e-05
-2.55964e-05
8.11599e-05
-2.1506e-05
8.0943e-05
-1.73768e-05
8.0843e-05
-1.32251e-05
8.08581e-05
-9.06719e-06
8.09858e-05
-4.91907e-06
8.12238e-05
-7.94196e-07
3.30512e-06
8.157e-05
8.24078e-05
-3.28605e-05
-8.31409e-05
8.17953e-05
-2.90161e-05
8.13022e-05
-2.51032e-05
8.09288e-05
-2.11326e-05
8.06744e-05
-1.71223e-05
8.05375e-05
-1.30882e-05
8.05165e-05
-9.04625e-06
8.06095e-05
-5.0121e-06
8.08143e-05
-9.98941e-07
2.99039e-06
8.1129e-05
8.22776e-05
-3.20947e-05
-8.30434e-05
8.16316e-05
-2.83701e-05
8.11048e-05
-2.45764e-05
8.06976e-05
-2.07255e-05
8.04097e-05
-1.68344e-05
8.02399e-05
-1.29184e-05
8.01868e-05
-8.9932e-06
8.02488e-05
-5.07408e-06
8.04238e-05
-1.17391e-06
2.70403e-06
8.07101e-05
8.21381e-05
-3.12997e-05
-8.29331e-05
8.14622e-05
-2.76942e-05
8.09053e-05
-2.40195e-05
8.0468e-05
-2.02883e-05
8.01502e-05
-1.65165e-05
7.99509e-05
-1.27192e-05
7.98692e-05
-8.91144e-06
7.99033e-05
-5.10823e-06
8.00515e-05
-1.3221e-06
2.44327e-06
8.03123e-05
8.19919e-05
-3.04787e-05
-8.28129e-05
8.12893e-05
-2.69917e-05
8.07056e-05
-2.34357e-05
8.02414e-05
-1.98241e-05
7.98968e-05
-1.61719e-05
7.96712e-05
-1.24936e-05
7.95637e-05
-8.8039e-06
7.95728e-05
-5.11736e-06
7.96969e-05
-1.44618e-06
2.20566e-06
7.99345e-05
8.18414e-05
-2.96345e-05
-8.26856e-05
8.1115e-05
-2.62653e-05
8.05073e-05
-2.2828e-05
8.00191e-05
-1.93359e-05
7.96505e-05
-1.58033e-05
7.94012e-05
-1.22443e-05
7.92705e-05
-8.67318e-06
7.92571e-05
-5.10394e-06
7.93594e-05
-1.54846e-06
1.98902e-06
7.9576e-05
8.16885e-05
-2.87696e-05
-8.25534e-05
8.09409e-05
-2.55178e-05
8.03117e-05
-2.21988e-05
7.98019e-05
-1.8826e-05
7.94118e-05
-1.54132e-05
7.91412e-05
-1.19738e-05
7.89896e-05
-8.52156e-06
7.89558e-05
-5.07014e-06
7.90384e-05
-1.63101e-06
1.79143e-06
7.9236e-05
8.1535e-05
-2.78862e-05
-8.24184e-05
8.07684e-05
-2.47512e-05
8.01199e-05
-2.15503e-05
7.95907e-05
-1.82968e-05
7.91812e-05
-1.50037e-05
7.88915e-05
-1.1684e-05
7.8721e-05
-8.35104e-06
7.86687e-05
-5.01787e-06
7.87333e-05
-1.69564e-06
1.61116e-06
7.89136e-05
8.13822e-05
-2.69863e-05
-8.22822e-05
8.05986e-05
-2.39676e-05
7.99329e-05
-2.08846e-05
7.93862e-05
-1.77502e-05
7.89593e-05
-1.45768e-05
7.86522e-05
-1.13769e-05
7.84645e-05
-8.16341e-06
7.83955e-05
-4.94886e-06
7.84438e-05
-1.74396e-06
1.44669e-06
7.86083e-05
8.12314e-05
-2.60716e-05
-8.21462e-05
8.04326e-05
-2.31687e-05
7.97513e-05
-2.02033e-05
7.91889e-05
-1.71878e-05
7.87462e-05
-1.41341e-05
7.84234e-05
-1.10541e-05
7.82202e-05
-7.96026e-06
7.81359e-05
-4.86459e-06
7.81694e-05
-1.77741e-06
1.29667e-06
7.83194e-05
8.10835e-05
-2.51435e-05
-8.20115e-05
8.0271e-05
-2.23561e-05
7.95757e-05
-1.9508e-05
7.89991e-05
-1.66112e-05
7.85421e-05
-1.36771e-05
7.82051e-05
-1.07171e-05
7.79878e-05
-7.74298e-06
7.78896e-05
-4.76643e-06
7.79095e-05
-1.79728e-06
1.15987e-06
7.80463e-05
8.09394e-05
-2.42036e-05
-8.18793e-05
8.01145e-05
-2.15312e-05
7.94066e-05
-1.88001e-05
7.88172e-05
-1.60218e-05
7.83473e-05
-1.32072e-05
7.79973e-05
-1.03671e-05
7.77672e-05
-7.51285e-06
7.76563e-05
-4.65559e-06
7.76638e-05
-1.80472e-06
1.03519e-06
7.77884e-05
8.07996e-05
-2.3253e-05
-8.17502e-05
7.99636e-05
-2.06952e-05
7.92443e-05
-1.80808e-05
7.86433e-05
-1.54209e-05
7.81617e-05
-1.27255e-05
7.77999e-05
-1.00053e-05
7.75581e-05
-7.27099e-06
7.74356e-05
-4.53314e-06
7.74317e-05
-1.80076e-06
9.21655e-07
7.75452e-05
8.06648e-05
-2.22928e-05
-8.1625e-05
7.98187e-05
-1.98492e-05
7.90892e-05
-1.73512e-05
7.84777e-05
-1.48094e-05
7.79853e-05
-1.22332e-05
7.76129e-05
-9.63281e-06
7.73603e-05
-7.01842e-06
7.72272e-05
-4.40006e-06
7.72128e-05
-1.78634e-06
8.18366e-07
7.73161e-05
8.05352e-05
-2.13238e-05
-8.15041e-05
7.96802e-05
-1.89941e-05
7.89413e-05
-1.66123e-05
7.83202e-05
-1.41883e-05
7.78182e-05
-1.17312e-05
7.74359e-05
-9.25054e-06
7.71736e-05
-6.75605e-06
7.70308e-05
-4.25725e-06
7.70067e-05
-1.76231e-06
7.24513e-07
7.71006e-05
8.04113e-05
-2.03471e-05
-8.13881e-05
7.95481e-05
-1.81309e-05
7.88008e-05
-1.5865e-05
7.81711e-05
-1.35586e-05
7.76602e-05
-1.12204e-05
7.7269e-05
-8.85933e-06
7.69977e-05
-6.48471e-06
7.68459e-05
-4.10549e-06
7.6813e-05
-1.72943e-06
6.39357e-07
7.68982e-05
8.02933e-05
-1.93633e-05
-8.12771e-05
7.94227e-05
-1.72604e-05
7.86677e-05
-1.511e-05
7.80302e-05
-1.2921e-05
7.75113e-05
-1.07015e-05
7.71119e-05
-8.45996e-06
7.68323e-05
-6.20514e-06
7.66724e-05
-3.94552e-06
7.66313e-05
-1.68841e-06
5.62221e-07
7.67085e-05
8.01813e-05
-1.83732e-05
-8.11715e-05
7.93041e-05
-1.63831e-05
7.85422e-05
-1.43481e-05
7.78974e-05
-1.22763e-05
7.73712e-05
-1.01753e-05
7.69644e-05
-8.05313e-06
7.66773e-05
-5.91805e-06
7.65098e-05
-3.778e-06
7.64612e-05
-1.63989e-06
4.9249e-07
7.6531e-05
8.00755e-05
-1.73773e-05
-8.10714e-05
7.91923e-05
-1.54999e-05
7.84241e-05
-1.35799e-05
7.77728e-05
-1.1625e-05
7.72399e-05
-9.64237e-06
7.68263e-05
-7.63947e-06
7.65322e-05
-5.62404e-06
7.63578e-05
-3.60354e-06
7.63024e-05
-1.58446e-06
4.29592e-07
7.63653e-05
7.99759e-05
-1.63763e-05
-8.0977e-05
7.90872e-05
-1.46112e-05
7.83134e-05
-1.2806e-05
7.76562e-05
-1.09679e-05
7.71172e-05
-9.10336e-06
7.66973e-05
-7.21957e-06
7.6397e-05
-5.32369e-06
7.62161e-05
-3.4227e-06
7.61543e-05
-1.52266e-06
3.73e-07
7.62109e-05
7.98826e-05
-1.53706e-05
-8.08883e-05
7.8989e-05
-1.37176e-05
7.821e-05
-1.2027e-05
7.75475e-05
-1.03053e-05
7.70029e-05
-8.55881e-06
7.65773e-05
-6.79398e-06
7.62712e-05
-5.01754e-06
7.60845e-05
-3.236e-06
7.60168e-05
-1.455e-06
3.22225e-07
7.60676e-05
7.97956e-05
-1.43608e-05
-8.08054e-05
7.88976e-05
-1.28196e-05
7.81139e-05
-1.12433e-05
7.74465e-05
-9.63794e-06
7.68969e-05
-8.0092e-06
7.64661e-05
-6.36317e-06
7.61547e-05
-4.70607e-06
7.59626e-05
-3.04392e-06
7.58895e-05
-1.38195e-06
2.76811e-07
7.59349e-05
7.97148e-05
-1.33473e-05
-8.07283e-05
7.88128e-05
-1.19177e-05
7.8025e-05
-1.04555e-05
7.73532e-05
-8.96615e-06
7.6799e-05
-7.455e-06
7.63635e-05
-5.92763e-06
7.60471e-05
-4.38975e-06
7.58501e-05
-2.8469e-06
7.57721e-05
-1.30393e-06
2.36335e-07
7.58126e-05
7.96402e-05
-1.23306e-05
-8.0657e-05
7.87347e-05
-1.10123e-05
7.79431e-05
-9.66391e-06
7.72674e-05
-8.2904e-06
7.6709e-05
-6.89665e-06
7.62692e-05
-5.48777e-06
7.59484e-05
-4.06898e-06
7.57469e-05
-2.64536e-06
7.56643e-05
-1.22137e-06
2.00396e-07
7.57003e-05
7.95717e-05
-1.13109e-05
-8.05914e-05
7.86632e-05
-1.01037e-05
7.78682e-05
-8.86896e-06
7.71889e-05
-7.6111e-06
7.66268e-05
-6.33456e-06
7.61831e-05
-5.04399e-06
7.58583e-05
-3.74416e-06
7.56526e-05
-2.4397e-06
7.55659e-05
-1.13463e-06
1.68618e-07
7.55976e-05
7.95094e-05
-1.02887e-05
-8.05316e-05
7.85981e-05
-9.1924e-06
7.78002e-05
-8.07106e-06
7.71177e-05
-6.92861e-06
7.65522e-05
-5.76909e-06
7.61049e-05
-4.59668e-06
7.57765e-05
-3.41568e-06
7.5567e-05
-2.23027e-06
7.54765e-05
-1.0441e-06
1.40642e-07
7.55045e-05
7.94531e-05
-9.26437e-06
-8.04775e-05
7.85394e-05
-8.27872e-06
7.77389e-05
-7.27054e-06
7.70536e-05
-6.2433e-06
7.64851e-05
-5.2006e-06
7.60346e-05
-4.14618e-06
7.57028e-05
-3.08389e-06
7.549e-05
-2.01743e-06
7.5396e-05
-9.501e-07
1.16131e-07
7.54205e-05
7.94028e-05
-8.2382e-06
-8.0429e-05
7.84871e-05
-7.36299e-06
7.76843e-05
-6.46775e-06
7.69965e-05
-5.55551e-06
7.64253e-05
-4.62944e-06
7.5972e-05
-3.69285e-06
7.56372e-05
-2.74911e-06
7.54213e-05
-1.80152e-06
7.53242e-05
-8.52972e-07
9.4758e-08
7.53455e-05
7.93584e-05
-7.21053e-06
-8.0386e-05
7.84409e-05
-6.44555e-06
7.76362e-05
-5.66302e-06
7.69462e-05
-4.86557e-06
7.63727e-05
-4.05593e-06
7.59169e-05
-3.23698e-06
7.55794e-05
-2.41166e-06
7.53607e-05
-1.58284e-06
7.52608e-05
-7.53029e-07
7.621e-08
7.52793e-05
7.93198e-05
-6.18167e-06
-8.03486e-05
7.84009e-05
-5.52669e-06
7.75945e-05
-4.85666e-06
7.69027e-05
-4.17377e-06
7.63272e-05
-3.48037e-06
7.58691e-05
-2.7789e-06
7.55293e-05
-2.07186e-06
7.53082e-05
-1.3617e-06
7.52057e-05
-6.50574e-07
6.01801e-08
7.52217e-05
7.92869e-05
-5.15192e-06
-8.03167e-05
7.8367e-05
-4.60673e-06
7.75593e-05
-4.04896e-06
7.68659e-05
-3.48042e-06
7.62886e-05
-2.90306e-06
7.58286e-05
-2.31889e-06
7.54867e-05
-1.72999e-06
7.52634e-05
-1.1384e-06
7.51588e-05
-5.4591e-07
4.63704e-08
7.51726e-05
7.92598e-05
-4.1216e-06
-8.02901e-05
7.8339e-05
-3.68596e-06
7.75303e-05
-3.24021e-06
7.68357e-05
-2.7858e-06
7.62569e-05
-2.32427e-06
7.57952e-05
-1.85724e-06
7.54516e-05
-1.38636e-06
7.52264e-05
-9.13244e-07
7.51199e-05
-4.39333e-07
3.44813e-08
7.51317e-05
7.92383e-05
-3.09098e-06
-8.02689e-05
7.8317e-05
-2.76464e-06
7.75075e-05
-2.43069e-06
7.68119e-05
-2.09019e-06
7.62319e-05
-1.7443e-06
7.57689e-05
-1.39423e-06
7.54238e-05
-1.04124e-06
7.5197e-05
-6.86514e-07
7.50888e-05
-3.3114e-07
2.42122e-08
7.50991e-05
7.92224e-05
-2.06034e-06
-8.02531e-05
7.83009e-05
-1.84305e-06
7.74908e-05
-1.62064e-06
7.67945e-05
-1.39383e-06
7.62136e-05
-1.1634e-06
7.57495e-05
-9.30158e-07
7.54032e-05
-6.94927e-07
7.51752e-05
-4.58516e-07
7.50657e-05
-2.21636e-07
1.52553e-08
7.50746e-05
7.92121e-05
-1.02994e-06
-8.02425e-05
7.82905e-05
-9.21434e-07
7.74802e-05
-8.10332e-07
7.67833e-05
-6.97012e-07
7.62018e-05
-5.81868e-07
7.5737e-05
-4.65306e-07
7.53898e-05
-3.47737e-07
7.51608e-05
-2.29564e-07
7.50503e-05
-1.11143e-07
7.29492e-09
7.50583e-05
7.92072e-05
-8.02371e-05
7.82858e-05
7.74754e-05
7.67784e-05
7.61966e-05
7.57313e-05
7.53835e-05
7.5154e-05
7.50428e-05
7.50501e-05
7.75116e-05
6.42429e-07
7.74794e-05
1.44313e-06
7.74382e-05
2.12283e-06
7.73846e-05
2.85344e-06
7.73206e-05
3.61387e-06
7.7249e-05
4.3971e-06
7.71719e-05
5.21244e-06
7.70921e-05
6.06896e-06
7.70135e-05
6.97487e-06
7.69409e-05
7.93885e-06
7.68802e-05
8.97009e-06
7.68391e-05
1.00781e-05
7.68269e-05
1.12726e-05
7.68555e-05
1.25628e-05
7.69392e-05
1.39569e-05
7.70958e-05
1.54607e-05
7.73473e-05
1.70744e-05
7.77251e-05
1.87848e-05
7.82948e-05
2.05425e-05
2.21922e-05
7.75343e-05
6.48991e-07
7.751e-05
1.46749e-06
7.74805e-05
2.15231e-06
7.74445e-05
2.88938e-06
7.74023e-05
3.65607e-06
7.73565e-05
4.44294e-06
7.73097e-05
5.2592e-06
7.72652e-05
6.11347e-06
7.72271e-05
7.01304e-06
7.72004e-05
7.96554e-06
7.71915e-05
8.97895e-06
7.72084e-05
1.00613e-05
7.72606e-05
1.12204e-05
7.73601e-05
1.24633e-05
7.75213e-05
1.37957e-05
7.77621e-05
1.52199e-05
7.81045e-05
1.67319e-05
7.85767e-05
1.83126e-05
7.92141e-05
1.99051e-05
2.13715e-05
7.75481e-05
6.52945e-07
7.75357e-05
1.4799e-06
7.75193e-05
2.1687e-06
7.74997e-05
2.90891e-06
7.74781e-05
3.67766e-06
7.74569e-05
4.46423e-06
7.74387e-05
5.27736e-06
7.74271e-05
6.12508e-06
7.74263e-05
7.01384e-06
7.74416e-05
7.95026e-06
7.74794e-05
8.94113e-06
7.75476e-05
9.99306e-06
7.76558e-05
1.11122e-05
7.78154e-05
1.23037e-05
7.80403e-05
1.35708e-05
7.83468e-05
1.49134e-05
7.8754e-05
1.63247e-05
7.92832e-05
1.77834e-05
7.99545e-05
1.92338e-05
2.0542e-05
7.75625e-05
6.53645e-07
7.75591e-05
1.48328e-06
7.75548e-05
2.17298e-06
7.75508e-05
2.91293e-06
7.75485e-05
3.68e-06
7.75501e-05
4.46261e-06
7.75585e-05
5.26892e-06
7.75773e-05
6.10633e-06
7.76106e-05
6.98047e-06
7.76639e-05
7.897e-06
7.77434e-05
8.86163e-06
7.78568e-05
9.87968e-06
7.80132e-05
1.09558e-05
7.82234e-05
1.20935e-05
7.85e-05
1.32942e-05
7.88576e-05
1.45559e-05
7.93122e-05
1.58701e-05
7.98804e-05
1.72152e-05
8.05761e-05
1.85381e-05
1.97113e-05
7.75767e-05
6.51298e-07
7.7581e-05
1.47895e-06
7.75877e-05
2.16634e-06
7.75979e-05
2.90273e-06
7.76132e-05
3.66469e-06
7.76358e-05
4.43999e-06
7.76685e-05
5.23618e-06
7.77149e-05
6.06e-06
7.7779e-05
6.91631e-06
7.78661e-05
7.80989e-06
7.79823e-05
8.74543e-06
7.81349e-05
9.72713e-06
7.83323e-05
1.07584e-05
7.85845e-05
1.18413e-05
7.89028e-05
1.29759e-05
7.92997e-05
1.41589e-05
7.97887e-05
1.53811e-05
8.03829e-05
1.66211e-05
8.1092e-05
1.7829e-05
1.88858e-05
7.75906e-05
6.46186e-07
7.76016e-05
1.46789e-06
7.7618e-05
2.14997e-06
7.7641e-05
2.87973e-06
7.76722e-05
3.63346e-06
7.77138e-05
4.39845e-06
7.77683e-05
5.18162e-06
7.78393e-05
5.98904e-06
7.79307e-05
6.82486e-06
7.80476e-05
7.69305e-06
7.81956e-05
8.5974e-06
7.83816e-05
9.54116e-06
7.86133e-05
1.05266e-05
7.88998e-05
1.15548e-05
7.92509e-05
1.26248e-05
7.96774e-05
1.37324e-05
8.01905e-05
1.48679e-05
8.08006e-05
1.6011e-05
8.15144e-05
1.71152e-05
1.80691e-05
7.76041e-05
6.38599e-07
7.7621e-05
1.45097e-06
7.76459e-05
2.12504e-06
7.76803e-05
2.84538e-06
7.77256e-05
3.5881e-06
7.7784e-05
4.34012e-06
7.78578e-05
5.10774e-06
7.79505e-05
5.8964e-06
7.80658e-05
6.70957e-06
7.82083e-05
7.55052e-06
7.83835e-05
8.42225e-06
7.85975e-05
9.32715e-06
7.88574e-05
1.02667e-05
7.91712e-05
1.12411e-05
7.95475e-05
1.22485e-05
7.99955e-05
1.32843e-05
8.05245e-05
1.4339e-05
8.11425e-05
1.5393e-05
8.18546e-05
1.64032e-05
1.72656e-05
7.76171e-05
6.28828e-07
7.76392e-05
1.42895e-06
7.76716e-05
2.09262e-06
7.77159e-05
2.80108e-06
7.77736e-05
3.53036e-06
7.78466e-05
4.26711e-06
7.79373e-05
5.01703e-06
7.80488e-05
5.78498e-06
7.81845e-05
6.57382e-06
7.83489e-05
7.38616e-06
7.85468e-05
8.22435e-06
7.87838e-05
9.09007e-06
7.90664e-05
9.98412e-06
7.94015e-05
1.0906e-05
7.97965e-05
1.18535e-05
8.02593e-05
1.28216e-05
8.07973e-05
1.38009e-05
8.14171e-05
1.47732e-05
8.21221e-05
1.56982e-05
1.64794e-05
7.76298e-05
6.17155e-07
7.76562e-05
1.40252e-06
7.76951e-05
2.05373e-06
7.7748e-05
2.74817e-06
7.78164e-05
3.46193e-06
7.79021e-05
4.18144e-06
7.80072e-05
4.91189e-06
7.81346e-05
5.65756e-06
7.82877e-05
6.42078e-06
7.84702e-05
7.2036e-06
7.86868e-05
8.00778e-06
7.89424e-05
8.83444e-06
7.92427e-05
9.68383e-06
7.95938e-05
1.0555e-05
8.00019e-05
1.14453e-05
8.04737e-05
1.23498e-05
8.10154e-05
1.32593e-05
8.16319e-05
1.41566e-05
8.23255e-05
1.50046e-05
1.57135e-05
7.76419e-05
6.03849e-07
7.76721e-05
1.37233e-06
7.77165e-05
2.0093e-06
7.77768e-05
2.68792e-06
7.78543e-05
3.38438e-06
7.79507e-05
4.08505e-06
7.8068e-05
4.79458e-06
7.82088e-05
5.51676e-06
7.83762e-05
6.25344e-06
7.85736e-05
7.00617e-06
7.88051e-05
7.77625e-06
7.90753e-05
8.56432e-06
7.93889e-05
9.3702e-06
7.97512e-05
1.01926e-05
8.01678e-05
1.10288e-05
8.0644e-05
1.18736e-05
8.11847e-05
1.27185e-05
8.1794e-05
1.35473e-05
8.2473e-05
1.43257e-05
1.49703e-05
7.76536e-05
5.89161e-07
7.7687e-05
1.33896e-06
7.7736e-05
1.96022e-06
7.78025e-05
2.6215e-06
7.78876e-05
3.29922e-06
7.79929e-05
3.97972e-06
7.81203e-05
4.66721e-06
7.82721e-05
5.365e-06
7.8451e-05
6.07452e-06
7.86603e-05
6.79693e-06
7.89034e-05
7.53309e-06
7.91844e-05
8.28331e-06
7.95075e-05
9.04708e-06
7.98773e-05
9.82288e-06
8.02982e-05
1.06078e-05
8.07748e-05
1.1397e-05
8.13111e-05
1.21822e-05
8.191e-05
1.29484e-05
8.25718e-05
1.36639e-05
1.42514e-05
7.76648e-05
5.73326e-07
7.77008e-05
1.30296e-06
7.77537e-05
1.9073e-06
7.78252e-05
2.54999e-06
7.79166e-05
3.20779e-06
7.80293e-05
3.86711e-06
7.81648e-05
4.5317e-06
7.83253e-05
5.20447e-06
7.85133e-05
5.88651e-06
7.87316e-05
6.5786e-06
7.89834e-05
7.2813e-06
7.92721e-05
7.99461e-06
7.96014e-05
8.71779e-06
7.99751e-05
9.44919e-06
8.0397e-05
1.01859e-05
8.08709e-05
1.09232e-05
8.13997e-05
1.16533e-05
8.19858e-05
1.23624e-05
8.26286e-05
1.30211e-05
1.35578e-05
7.76755e-05
5.56558e-07
7.77136e-05
1.26483e-06
7.77697e-05
1.85125e-06
7.78453e-05
2.47437e-06
7.79417e-05
3.11135e-06
7.80601e-05
3.7487e-06
7.8202e-05
4.38979e-06
7.83693e-05
5.03718e-06
7.85642e-05
5.69162e-06
7.87892e-05
6.35364e-06
7.9047e-05
7.0235e-06
7.93406e-05
7.70098e-06
7.96732e-05
8.3852e-06
8.0048e-05
9.07442e-06
8.04681e-05
9.76577e-06
8.09365e-05
1.04548e-05
8.14557e-05
1.11341e-05
8.2027e-05
1.17911e-05
8.26497e-05
1.23984e-05
1.289e-05
7.76857e-05
5.39054e-07
7.77255e-05
1.22501e-06
7.7784e-05
1.79275e-06
7.78628e-05
2.39554e-06
7.79632e-05
3.01101e-06
7.8086e-05
3.62584e-06
7.82328e-05
4.24306e-06
7.8405e-05
4.8649e-06
7.86048e-05
5.49184e-06
7.88343e-05
6.12418e-06
7.90958e-05
6.76197e-06
7.9392e-05
7.40483e-06
7.97254e-05
8.05176e-06
8.00988e-05
8.701e-06
8.05148e-05
9.34977e-06
8.09757e-05
9.99385e-06
8.14834e-05
1.06265e-05
8.20387e-05
1.12358e-05
8.26404e-05
1.17967e-05
1.22482e-05
7.76954e-05
5.20989e-07
7.77365e-05
1.18391e-06
7.77969e-05
1.73239e-06
7.78781e-05
2.3143e-06
7.79814e-05
2.90778e-06
7.81075e-05
3.49974e-06
7.82576e-05
4.0929e-06
7.84333e-05
4.68919e-06
7.86363e-05
5.2889e-06
7.88684e-05
5.8921e-06
7.91316e-05
6.4987e-06
7.94283e-05
7.10819e-06
7.97605e-05
7.71952e-06
8.01306e-05
8.33093e-06
8.05406e-05
8.93979e-06
8.09923e-05
9.54211e-06
8.14871e-05
1.01317e-05
8.20254e-05
1.06974e-05
8.26057e-05
1.12164e-05
1.16321e-05
7.77047e-05
5.02521e-07
7.77467e-05
1.14189e-06
7.78084e-05
1.6707e-06