/*--------------------------------*- C++ -*----------------------------------*\
  =========                 |
  \\      /  F ield         | OpenFOAM: The Open Source CFD Toolbox
   \\    /   O peration     | Website:  https://openfoam.org
    \\  /    A nd           | Version:  6
     \\/     M anipulation  |
\*---------------------------------------------------------------------------*/
FoamFile
{
    version     2.0;
    format      ascii;
    class       volVectorField;
    location    "0.25";
    object      U;
}
// * * * * * * * * * * * * * * * * * * * * * * * * * * * * * * * * * * * * * //

dimensions      [0 1 -1 0 0 0 0];

internalField   nonuniform List<vector> 
5600
(
(0.984202 0.000264535 3.75697e-19)
(0.994715 0.00081392 -6.44711e-18)
(0.997996 0.00129074 6.43234e-18)
(0.995364 0.00179872 0)
(0.992 0.00232869 0)
(0.988606 0.00287284 0)
(0.984634 0.00344595 -1.1998e-17)
(0.979871 0.00406063 1.19708e-17)
(0.974305 0.00472488 0)
(0.967903 0.00544771 0)
(0.960595 0.00624056 0)
(0.952291 0.00711683 0)
(0.942891 0.00809181 0)
(0.932272 0.00918275 -2.36207e-17)
(0.920295 0.0104084 2.35679e-17)
(0.906794 0.0117874 -4.70314e-17)
(0.891588 0.0133329 4.69265e-17)
(0.874483 0.015042 0)
(0.855289 0.0168734 -3.64997e-19)
(0.833864 0.0186928 0)
(0.984513 0.000913563 -3.70459e-19)
(0.994954 0.00252586 6.35782e-18)
(0.997999 0.00390516 -6.34561e-18)
(0.995327 0.00535764 0)
(0.992017 0.00689031 0)
(0.988672 0.00848122 2.44947e-17)
(0.984743 0.0101542 7.67098e-23)
(0.980035 0.0119396 -7.39344e-19)
(0.97454 0.0138628 1.13014e-22)
(0.968228 0.0159518 -2.35723e-17)
(0.961031 0.0182395 0)
(0.952864 0.0207645 -4.77007e-17)
(0.943631 0.0235709 4.68779e-17)
(0.933218 0.0267082 0)
(0.921494 0.0302298 0)
(0.908304 0.0341874 0)
(0.893476 0.0386172 0)
(0.876826 0.0435073 -4.64408e-17)
(0.858165 0.0487383 4.67157e-17)
(0.837262 0.0539678 4.55752e-17)
(0.985294 0.00163406 0)
(0.995228 0.00423792 0)
(0.998017 0.00648281 0)
(0.995371 0.00887896 0)
(0.992146 0.011404 2.34726e-17)
(0.988884 0.0140227 -2.41703e-17)
(0.985053 0.0167763 -1.4627e-18)
(0.980474 0.0197134 -7.30271e-19)
(0.975143 0.0228753 2.33344e-17)
(0.969033 0.026308 -2.18437e-17)
(0.962084 0.0300656 -1.45411e-18)
(0.954219 0.0342109 4.71894e-17)
(0.945355 0.0388154 -4.78448e-17)
(0.935391 0.0439591 1.44772e-18)
(0.924212 0.0497277 4.62597e-17)
(0.911684 0.0562035 -9.38272e-17)
(0.897651 0.0634435 -1.44194e-18)
(0.881944 0.0714281 4.6057e-17)
(0.864371 0.0799641 -1.43719e-18)
(0.844623 0.0885195 -7.17926e-19)
(0.986548 0.00232692 0)
(0.995604 0.00595402 -1.44826e-18)
(0.998056 0.00904597 0)
(0.9955 0.0123387 0)
(0.992415 0.0158145 0)
(0.989286 0.0194242 0)
(0.98562 0.0232201 1.44119e-18)
(0.981253 0.027267 2.44762e-17)
(0.976189 0.0316218 -2.30138e-17)
(0.970406 0.0363468 -1.43696e-18)
(0.963854 0.0415156 2.8711e-18)
(0.956472 0.0472131 0)
(0.948192 0.0535355 -4.44153e-17)
(0.938935 0.0605903 4.43716e-17)
(0.928611 0.0684919 4.57586e-17)
(0.917113 0.0773503 -4.57134e-17)
(0.904314 0.0872417 9.27656e-17)
(0.890068 0.0981419 -9.12483e-17)
(0.874197 0.109795 1.42438e-18)
(0.85634 0.121511 1.42358e-18)
(0.988281 0.00300959 -5.62485e-18)
(0.996101 0.00764577 7.10184e-18)
(0.998114 0.0115472 -1.13581e-17)
(0.99571 0.0156824 -1.13534e-17)
(0.992827 0.0200552 2.26974e-17)
(0.989887 0.0246022 2.2688e-17)
(0.986454 0.0293824 -2.26785e-17)
(0.982386 0.0344747 1.41681e-18)
(0.977692 0.0399498 1.41622e-18)
(0.97236 0.0458848 4.53004e-17)
(0.966353 0.0523698 -9.05626e-17)
(0.95963 0.0595085 1.41416e-18)
(0.952144 0.0674179 4.66568e-17)
(0.943843 0.076228 1.41324e-18)
(0.93467 0.0860768 -4.37923e-17)
(0.924555 0.0970964 4.80095e-17)
(0.913411 0.109378 1.41144e-18)
(0.901122 0.122895 0)
(0.887546 0.137335 1.41023e-18)
(0.872304 0.151872 1.41002e-18)
(0.990489 0.00368129 5.50428e-18)
(0.996714 0.00928641 -5.561e-18)
(0.998186 0.0139435 1.39052e-18)
(0.995997 0.018859 0)
(0.993379 0.0240651 2.22578e-17)
(0.990685 0.0294831 -2.22624e-17)
(0.98755 0.0351753 1.39168e-18)
(0.983863 0.0412323 -4.73272e-17)
(0.979636 0.0477365 -2.78468e-18)
(0.97487 0.0547772 8.91224e-17)
(0.969546 0.0624576 -4.73557e-17)
(0.963641 0.0708957 -1.3931e-18)
(0.957138 0.0802243 -4.73747e-17)
(0.950017 0.0905898 -4.59906e-17)
(0.942258 0.102147 8.78162e-17)
(0.933839 0.115041 8.64395e-17)
(0.924716 0.129376 -9.06386e-17)
(0.914818 0.145118 8.7867e-17)
(0.904051 0.161905 -1.79951e-16)
(0.892049 0.178801 8.79136e-17)
(0.993165 0.00433576 0)
(0.99743 0.0108511 0)
(0.998268 0.0161958 -1.3595e-18)
(0.996359 0.0218193 2.17713e-17)
(0.994069 0.0277851 -2.17905e-17)
(0.991671 0.0339967 -1.36311e-18)
(0.988896 0.0405159 -1.36432e-18)
(0.985663 0.0474426 1.36553e-18)
(0.98199 0.0548685 1.36673e-18)
(0.977891 0.0628915 0)
(0.973365 0.0716241 4.51816e-17)
(0.968416 0.0811939 1.95885e-22)
(0.963053 0.091743 -4.25176e-17)
(0.957295 0.103427 -8.64829e-17)
(0.951165 0.116409 1.75864e-16)
(0.944691 0.130841 -8.66336e-17)
(0.937883 0.146829 8.80859e-17)
(0.930714 0.164337 -8.67844e-17)
(0.923155 0.182963 -8.82388e-17)
(0.914874 0.201691 8.69394e-17)
(0.996291 0.00497089 0)
(0.998228 0.0123123 1.3249e-18)
(0.998354 0.0182625 -2.12326e-17)
(0.996799 0.0245156 2.25959e-17)
(0.994892 0.0311601 -2.1301e-17)
(0.992835 0.0380783 2.40022e-17)
(0.990472 0.0453288 0)
(0.987755 0.0530176 1.33775e-18)
(0.984709 0.0612429 0)
(0.981358 0.0701077 -1.34207e-18)
(0.977723 0.0797289 4.30159e-17)
(0.973833 0.090238 -4.30852e-17)
(0.96973 0.10178 -8.63098e-17)
(0.96547 0.114511 8.50981e-17)
(0.961121 0.128594 0)
(0.956765 0.144178 0)
(0.95247 0.161369 8.68684e-17)
(0.94826 0.180129 1.86963e-22)
(0.944179 0.200041 -8.71486e-17)
(0.939952 0.220074 8.86475e-17)
(0.999843 0.0056149 -4.46633e-18)
(0.999072 0.0136396 4.51648e-18)
(0.998444 0.0201165 0)
(0.997325 0.0269458 -1.94484e-18)
(0.995851 0.0342021 -2.07943e-17)
(0.99417 0.0417505 -2.21466e-17)
(0.99226 0.0496487 8.3574e-17)
(0.990108 0.0580061 -4.31958e-17)
(0.987739 0.066924 -4.19871e-17)
(0.985192 0.0765067 4.34029e-17)
(0.982508 0.0868709 -8.43774e-17)
(0.979743 0.0981454 1.6916e-16)
(0.976968 0.11047 1.99921e-22)
(0.974276 0.123992 -8.49877e-17)
(0.971782 0.138863 0)
(0.969622 0.155219 8.53984e-17)
(0.967925 0.173155 -1.71209e-16)
(0.966783 0.192645 8.58117e-17)
(0.966352 0.21328 0)
(0.966468 0.234031 0)
(1.0038 0.0063414 -5.57945e-18)
(0.999898 0.014751 4.38995e-18)
(0.998598 0.0217054 0)
(0.998014 0.0291214 2.08273e-17)
(0.996996 0.0369482 -2.02604e-17)
(0.995715 0.0450667 -4.06502e-17)
(0.994296 0.0535512 -5.47953e-23)
(0.992746 0.0625115 8.18216e-17)
(0.991092 0.0720495 -8.20843e-17)
(0.989383 0.0822697 4.11742e-17)
(0.987682 0.0932859 -8.26139e-17)
(0.986063 0.105221 8.28806e-17)
(0.984627 0.118202 -8.3149e-17)
(0.983497 0.132361 8.34185e-17)
(0.98283 0.147825 8.36896e-17)
(0.982811 0.164699 -8.39621e-17)
(0.983642 0.183051 0)
(0.985512 0.202872 -8.45108e-17)
(0.988711 0.223892 8.47877e-17)
(0.993208 0.245098 8.50424e-17)
(0.806969 0.0202805 0)
(0.770419 0.0224585 0)
(0.726497 0.0249552 4.24918e-17)
(0.673186 0.0278157 -2.30644e-17)
(0.607809 0.0310378 -2.52212e-17)
(0.526984 0.0344578 4.17243e-17)
(0.427154 0.0375142 -1.54963e-17)
(0.30498 0.0388833 3.49698e-17)
(0.1595 0.0359317 0)
(0.0444799 0.0202952 0)
(0.811113 0.0588473 -1.84376e-17)
(0.775384 0.0654811 -5.94272e-17)
(0.732267 0.0731118 -2.13733e-17)
(0.679892 0.0818748 2.32021e-17)
(0.615579 0.0917679 2.53677e-17)
(0.5359 0.102288 -5.59438e-17)
(0.437172 0.111745 4.67349e-17)
(0.315805 0.116082 -8.78399e-17)
(0.169826 0.106977 -1.00593e-17)
(0.050563 0.0606269 6.43109e-17)
(0.82 0.0965525 1.85137e-17)
(0.785792 0.107488 -1.98912e-17)
(0.74423 0.120092 4.29258e-17)
(0.693667 0.134561 4.66044e-17)
(0.631415 0.15089 -5.09635e-17)
(0.553955 0.168233 -2.81013e-17)
(0.457344 0.183794 3.13092e-17)
(0.337353 0.190823 -5.29716e-17)
(0.190355 0.175266 8.09096e-17)
(0.0627399 0.0994983 -1.52906e-16)
(0.834033 0.132515 3.7054e-17)
(0.80192 0.147596 0)
(0.762535 0.164969 0)
(0.714542 0.184864 -4.66395e-17)
(0.655217 0.207268 5.10017e-17)
(0.580901 0.230992 1.95766e-21)
(0.487263 0.25215 0)
(0.3691 0.261406 7.06921e-17)
(0.220515 0.239364 -6.07339e-17)
(0.0806249 0.135735 1.88365e-16)
(0.853016 0.165481 -3.69585e-17)
(0.823477 0.184414 0)
(0.786792 0.206241 8.56751e-17)
(0.742016 0.231173 0)
(0.686356 0.259193 5.08456e-17)
(0.615966 0.288762 5.60694e-17)
(0.526008 0.314936 0)
(0.410036 0.325929 1.40881e-16)
(0.25928 0.297504 -2.01694e-17)
(0.103549 0.168253 -7.03507e-17)
(0.876337 0.194533 1.84071e-21)
(0.849755 0.216924 -1.5785e-16)
(0.816196 0.242788 -2.46032e-21)
(0.775171 0.27227 0)
(0.723778 0.30534 -5.0512e-17)
(0.657938 0.340116 -5.56807e-17)
(0.572214 0.370626 0)
(0.458686 0.382795 -1.398e-16)
(0.305206 0.348121 -1.59996e-16)
(0.130603 0.196118 2.32375e-17)
(0.90312 0.219043 6.85375e-22)
(0.879756 0.244451 1.01195e-21)
(0.849646 0.27388 1.6866e-16)
(0.812781 0.307369 -1.1871e-21)
(0.766101 0.344863 -9.99879e-17)
(0.705259 0.384122 -1.10176e-16)
(0.62414 0.418181 -3.06569e-17)
(0.513183 0.430855 3.45359e-17)
(0.356495 0.390037 1.18488e-16)
(0.16065 0.218591 2.29191e-16)
(0.932351 0.238681 -1.60694e-21)
(0.91228 0.266705 7.72171e-17)
(0.885805 0.299226 -1.66505e-16)
(0.853365 0.336167 -4.51549e-17)
(0.81166 0.37743 2.46576e-16)
(0.756075 0.420397 1.08625e-16)
(0.679771 0.457134 -1.20807e-16)
(0.571432 0.46956 0)
(0.411173 0.422659 3.8837e-17)
(0.192413 0.235259 -4.05153e-16)
(0.962959 0.253538 -1.12969e-21)
(0.945728 0.283773 -7.60211e-17)
(0.922894 0.318965 3.68881e-21)
(0.895002 0.358865 -8.88356e-17)
(0.858429 0.403297 9.69685e-17)
(0.808348 0.449246 5.33651e-17)
(0.737152 0.487841 5.93111e-17)
(0.631619 0.499315 -3.33453e-17)
(0.467525 0.446369 3.80429e-17)
(0.224638 0.246219 1.76143e-16)
(0.992942 0.265087 -6.95495e-17)
(0.977488 0.297069 -7.462e-17)
(0.95847 0.334561 8.03903e-17)
(0.935306 0.376946 8.71101e-17)
(0.904171 0.423845 -1.90088e-16)
(0.860064 0.471767 0)
(0.794406 0.510948 0)
(0.691691 0.520289 -3.25952e-17)
(0.523011 0.461093 3.71373e-17)
(0.255371 0.251237 0)
(1.02107 0.283715 6.8019e-17)
(1.00658 0.316605 7.30583e-17)
(0.991189 0.354408 0)
(0.97195 0.396993 -8.54515e-17)
(0.945293 0.443187 0)
(0.905803 0.488779 -1.02813e-16)
(0.84379 0.523495 -5.71855e-17)
(0.741711 0.52639 -6.43765e-17)
(0.567523 0.460229 -1.4713e-16)
(0.279141 0.246938 1.70686e-16)
(1.05201 0.300479 1.4974e-21)
(1.041 0.333758 -1.48581e-16)
(1.02911 0.370967 2.09681e-21)
(1.01335 0.41243 8.69361e-17)
(0.990084 0.45611 0)
(0.953203 0.49702 1.0467e-16)
(0.891801 0.524514 0)
(0.786715 0.51831 1.31216e-16)
(0.604335 0.443962 1.45035e-20)
(0.296792 0.232999 -1.74184e-16)
(1.08433 0.312877 7.01441e-17)
(1.07726 0.345589 -7.53583e-17)
(1.06877 0.381559 2.43867e-16)
(1.05605 0.420949 -8.82208e-17)
(1.0353 0.461026 -9.64207e-17)
(0.999646 0.496177 -5.31379e-17)
(0.937117 0.515575 2.30794e-21)
(0.827308 0.499878 6.66773e-17)
(0.635763 0.417901 2.67014e-16)
(0.310243 0.213436 4.43155e-17)
(1.11766 0.320069 -1.41959e-16)
(1.11427 0.351503 0)
(1.10883 0.385526 -4.21416e-21)
(1.09857 0.42193 8.93086e-17)
(1.07935 0.457441 2.44097e-16)
(1.04361 0.486031 5.38196e-17)
(0.978449 0.496958 1.19886e-16)
(0.862555 0.472168 -1.01381e-16)
(0.66117 0.384149 -1.93463e-16)
(0.319396 0.190094 1.79908e-16)
(1.15128 0.321697 7.16519e-17)
(1.1511 0.351225 7.69857e-17)
(1.14814 0.382615 -1.66145e-16)
(1.13952 0.415209 -4.50967e-17)
(1.12065 0.445325 -1.97235e-16)
(1.0833 0.466721 -1.63126e-16)
(1.01384 0.469034 -2.42311e-16)
(0.890468 0.435899 1.36665e-16)
(0.678845 0.343933 0)
(0.323637 0.164119 -2.04843e-16)
(1.1842 0.317481 1.08214e-16)
(1.18661 0.344561 0)
(1.18537 0.372731 0)
(1.17736 0.400857 0)
(1.15748 0.424981 0)
(1.11691 0.438855 1.09568e-16)
(1.04151 0.432777 1.22094e-16)
(0.90947 0.392422 0)
(0.687707 0.298875 0)
(0.322753 0.13669 -9.18354e-17)
(1.21538 0.307374 -3.6225e-17)
(1.21962 0.331567 -9.01192e-22)
(1.21915 0.356052 -4.20083e-17)
(1.21057 0.379243 4.56144e-17)
(1.18823 0.397056 -4.98899e-17)
(1.14284 0.403427 1.37587e-16)
(1.06004 0.389575 -3.06686e-17)
(0.918538 0.343484 6.92157e-17)
(0.687333 0.250838 -1.98327e-17)
(0.316896 0.108969 9.23466e-17)
(1.2438 0.291576 7.25642e-17)
(1.24896 0.312565 -3.89858e-17)
(1.24819 0.333048 0)
(1.23773 0.351049 -4.56908e-17)
(1.21148 0.362507 0)
(1.15978 0.361732 -5.51309e-17)
(1.06843 0.341072 -3.07211e-17)
(0.917173 0.290995 3.46702e-17)
(0.677828 0.201697 0)
(0.30648 0.0820144 -1.15665e-17)
(1.2685 0.270509 -5.4363e-17)
(1.27361 0.288127 3.89419e-17)
(1.27141 0.30445 0)
(1.25781 0.31721 0)
(1.2263 0.322521 4.99137e-17)
(1.16712 0.315235 -2.7532e-17)
(1.06649 0.289014 -3.06833e-17)
(0.905721 0.23688 -6.92584e-17)
(0.65997 0.153256 3.96904e-17)
(0.292177 0.0567606 -5.19756e-17)
(1.2887 0.244838 5.41602e-17)
(1.29292 0.258951 -6.01924e-22)
(1.28829 0.270984 -2.09323e-17)
(1.27039 0.278519 0)
(1.23241 0.278019 -2.48574e-17)
(1.16471 0.26507 -1.37084e-17)
(1.05431 0.234813 3.81931e-17)
(0.88453 0.182806 8.61921e-18)
(0.634312 0.10717 -4.44474e-17)
(0.274404 0.034024 5.17265e-17)
(1.03265 0.259305 -4.18721e-16)
(1.06146 0.274625 1.03574e-16)
(1.09078 0.286244 0)
(1.12092 0.293357 1.02449e-16)
(1.15149 0.295646 -3.07618e-23)
(1.18161 0.292851 -1.56629e-18)
(1.21039 0.284866 7.79195e-19)
(1.23696 0.271785 -5.00475e-17)
(1.26055 0.25389 4.98896e-17)
(1.28026 0.23176 -2.46973e-17)
(1.04138 0.24601 2.08816e-16)
(1.06792 0.258751 0)
(1.09479 0.268536 0)
(1.12235 0.274556 1.00709e-16)
(1.15045 0.276456 1.57457e-18)
(1.17826 0.273989 -7.8235e-19)
(1.20501 0.267032 7.78511e-19)
(1.22995 0.255628 4.88481e-17)
(1.25245 0.23997 -4.94707e-17)
(1.27155 0.220564 2.46827e-17)
(1.04988 0.234826 0)
(1.07383 0.24536 -1.03208e-16)
(1.09821 0.253245 1.02273e-16)
(1.12322 0.257993 -1.01465e-16)
(1.14885 0.259255 0)
(1.17433 0.2568 -7.82652e-19)
(1.19902 0.250502 -9.89338e-17)
(1.22227 0.240366 0)
(1.24356 0.226524 0)
(1.2619 0.209409 -2.47104e-17)
(1.05742 0.224177 0)
(1.07919 0.23276 1.0218e-21)
(1.10126 0.239008 -1.0219e-16)
(1.12388 0.242634 1.01426e-16)
(1.1471 0.243315 7.87291e-19)
(1.1703 0.240835 -1.01009e-16)
(1.19292 0.235067 -3.73713e-22)
(1.21442 0.225986 0)
(1.23439 0.213676 0)
(1.25185 0.198491 0)
(1.06367 0.213904 -1.03815e-16)
(1.0836 0.220909 2.0587e-16)
(1.10367 0.225824 7.97687e-19)
(1.12416 0.228502 -1.02181e-16)
(1.14519 0.228669 -7.87301e-19)
(1.16626 0.226134 -1.0026e-16)
(1.18691 0.220779 1.50534e-16)
(1.20669 0.21256 -3.88661e-19)
(1.22529 0.201525 -4.9234e-17)
(1.24177 0.187959 -2.47667e-17)
(1.06869 0.203956 2.07239e-16)
(1.08698 0.209731 -1.02799e-16)
(1.10531 0.213602 1.02021e-16)
(1.12395 0.215516 1.00559e-16)
(1.14305 0.215256 1.02352e-16)
(1.1622 0.212662 9.95111e-17)
(1.18104 0.20763 -4.99489e-17)
(1.1992 0.200111 -3.88988e-19)
(1.21645 0.19013 3.87727e-19)
(1.2319 0.177918 2.47946e-17)
(1.0726 0.194319 -1.03829e-16)
(1.08942 0.19912 -1.02261e-16)
(1.10621 0.202182 -1.01938e-16)
(1.12325 0.203506 -1.01313e-16)
(1.14066 0.202921 -9.9991e-17)
(1.15811 0.200293 9.87614e-17)
(1.17532 0.195537 -4.91989e-17)
(1.19199 0.188602 0)
(1.20795 0.179501 9.94441e-17)
(1.22238 0.168426 0)
(1.07552 0.185004 0)
(1.09102 0.189021 1.02527e-16)
(1.10646 0.191456 -1.01854e-16)
(1.12209 0.192337 7.912e-19)
(1.13802 0.19152 -1.02354e-16)
(1.15398 0.188898 -1.00363e-16)
(1.16974 0.184395 5.07921e-17)
(1.18507 0.177964 -4.98749e-17)
(1.19983 0.169612 -9.95449e-17)
(1.21328 0.159502 0)
(1.07759 0.176022 -1.03036e-16)
(1.09189 0.179404 0)
(1.10612 0.181356 1.01772e-16)
(1.12051 0.181908 1.02027e-16)
(1.13515 0.180941 3.21755e-23)
(1.14981 0.178361 9.96133e-17)
(1.1643 0.174102 0)
(1.17842 0.168121 4.99167e-17)
(1.19209 0.160419 5.00174e-17)
(1.20461 0.15114 -2.50736e-17)
(1.07892 0.167382 1.02843e-16)
(1.09214 0.170251 -1.02256e-16)
(1.10529 0.171828 1.01688e-16)
(1.11859 0.172142 -1.00408e-16)
(1.13209 0.171088 1.99988e-16)
(1.14561 0.168582 -9.88625e-17)
(1.15898 0.164565 -7.8239e-19)
(1.17203 0.158993 -3.90301e-19)
(1.18471 0.151868 -4.94839e-17)
(1.19638 0.143316 2.49074e-17)
(1.07961 0.159089 0)
(1.09185 0.16154 1.02122e-16)
(1.10404 0.162828 -1.01605e-16)
(1.11637 0.162974 -7.90311e-19)
(1.12887 0.161883 -9.92079e-17)
(1.14139 0.159477 -7.84897e-19)
(1.15377 0.155699 -7.82861e-19)
(1.16587 0.150507 7.8127e-19)
(1.17766 0.143901 4.99239e-17)
(1.18856 0.135993 2.49358e-17)
(1.07976 0.151142 1.02859e-16)
(1.09112 0.153255 -3.98389e-19)
(1.10245 0.154321 0)
(1.11391 0.154352 0)
(1.12553 0.15326 7.87366e-19)
(1.13716 0.150972 -5.18205e-17)
(1.14867 0.147431 1.08923e-23)
(1.15994 0.142595 5.04341e-17)
(1.17094 0.136462 3.9043e-19)
(1.18113 0.129133 -2.4964e-17)
(1.07946 0.143536 -1.02268e-16)
(1.09003 0.145376 -1.01852e-16)
(1.10058 0.146273 -1.01439e-16)
(1.11127 0.146229 -7.89717e-19)
(1.12211 0.145164 1.08971e-23)
(1.13295 0.143004 5.02672e-17)
(1.14369 0.139696 7.83839e-19)
(1.15422 0.135197 1.27588e-22)
(1.16451 0.129499 0)
(1.17408 0.122697 0)
(1.07878 0.136265 -1.02476e-16)
(1.08863 0.137884 2.03835e-16)
(1.09849 0.138653 1.01356e-16)
(1.1085 0.138566 0)
(1.11863 0.137546 -9.99979e-17)
(1.12878 0.135523 4.94986e-17)
(1.13884 0.132441 0)
(1.14871 0.128258 -5.0519e-17)
(1.15837 0.122965 -2.4647e-17)
(1.16737 0.116644 0)
(1.0778 0.129318 1.02285e-16)
(1.087 0.130759 -1.01982e-16)
(1.09624 0.131433 0)
(1.10563 0.131326 1.00219e-16)
(1.11514 0.130364 1.00786e-16)
(1.12466 0.12848 -1.00603e-16)
(1.13411 0.125618 -4.94425e-17)
(1.1434 0.121734 0)
(1.15249 0.116816 2.50636e-17)
(1.16098 0.11094 0)
(1.07656 0.122684 1.01698e-16)
(1.08519 0.123982 0)
(1.09387 0.124587 0)
(1.1027 0.124477 -1.00181e-16)
(1.11165 0.123583 -8.9321e-24)
(1.12062 0.121837 4.87459e-17)
(1.12952 0.119186 5.10436e-17)
(1.13828 0.115583 -3.92279e-19)
(1.14687 0.111016 1.96012e-19)
(1.15491 0.105551 1.95923e-19)
(1.07512 0.116351 -2.03018e-16)
(1.08324 0.117535 1.01318e-16)
(1.09141 0.11809 7.89899e-19)
(1.09975 0.117991 -7.88535e-19)
(1.10819 0.117168 -5.03938e-17)
(1.11666 0.115559 0)
(1.12508 0.113109 0)
(1.13337 0.10977 5.02544e-17)
(1.1415 0.10553 0)
(1.14913 0.100447 0)
(1.07353 0.110306 1.01717e-16)
(1.08118 0.111398 -1.01581e-16)
(1.0889 0.11192 7.89253e-19)
(1.09679 0.111839 -1.0247e-16)
(1.10478 0.111091 5.11815e-17)
(1.1128 0.109615 0)
(1.12078 0.107355 -7.86252e-19)
(1.12865 0.104265 -4.99037e-17)
(1.13637 0.100329 1.96411e-19)
(1.14364 0.0956022 1.9637e-19)
(1.07183 0.104536 -1.01528e-16)
(1.07906 0.105554 3.9474e-19)
(1.08637 0.106054 -1.00942e-16)
(1.09385 0.105998 1.00855e-16)
(1.10144 0.105326 7.87408e-19)
(1.10905 0.103976 -7.87026e-19)
(1.11664 0.101896 4.95647e-17)
(1.12412 0.0990389 7.86553e-19)
(1.13148 0.0953881 0)
(1.13841 0.0909921 0)
(1.07004 0.0990258 -3.94097e-19)
(1.0769 0.0999859 1.01315e-16)
(1.08385 0.100471 1.0086e-16)
(1.09096 0.100445 -1.01605e-16)
(1.09817 0.0998467 5.1182e-17)
(1.10542 0.0986185 0)
(1.11265 0.096707 -5.03825e-17)
(1.11979 0.0940681 -3.93605e-19)
(1.12681 0.0906831 3.93619e-19)
(1.13344 0.0865959 0)
(1.06821 0.0937632 3.93793e-19)
(1.07472 0.094676 -1.01182e-16)
(1.08134 0.0951544 -1.00777e-16)
(1.08812 0.0951591 1.00779e-16)
(1.095 0.0946327 -1.0079e-16)
(1.10192 0.093519 0)
(1.10882 0.0917662 0)
(1.11565 0.0893308 -3.93938e-19)
(1.12237 0.0861938 -2.50203e-17)
(1.12873 0.0823947 2.54187e-17)
(1.06634 0.0887347 1.00181e-16)
(1.07255 0.0896089 -1.00263e-16)
(1.07887 0.0900846 1.00695e-16)
(1.08535 0.090121 -5.11572e-17)
(1.09192 0.0896633 7.87429e-19)
(1.09854 0.0886574 0)
(1.10515 0.0870529 -5.04447e-17)
(1.1117 0.0848075 -3.94271e-19)
(1.11814 0.0819018 2.56374e-17)
(1.12425 0.0783717 -2.52505e-17)
(1.06447 0.0839271 0)
(1.07041 0.0847694 1.00525e-16)
(1.07645 0.0852451 -1.00612e-16)
(1.08265 0.0853129 5.11377e-17)
(1.08895 0.0849202 4.96078e-17)
(1.0953 0.0840152 0)
(1.10165 0.082549 4.96871e-17)
(1.10793 0.0804806 3.9461e-19)
(1.11412 0.0777906 1.97415e-19)
(1.12001 0.0745117 1.97497e-19)
(1.06261 0.0793278 3.91417e-19)
(1.0683 0.0801431 -3.92164e-19)
(1.07409 0.0806203 1.0053e-16)
(1.08005 0.0807182 7.86431e-19)
(1.0861 0.0803865 -5.03953e-17)
(1.0922 0.0795754 4.96659e-17)
(1.0983 0.0782378 -4.97178e-17)
(1.10435 0.0763341 2.40913e-17)
(1.11031 0.0738453 5.92845e-19)
(1.11599 0.0708011 -1.97724e-19)
(1.06078 0.0749246 9.96281e-17)
(1.06624 0.0757162 3.91652e-19)
(1.07181 0.0761956 0)
(1.07754 0.0763216 0)
(1.08336 0.0760464 3.55855e-24)
(1.08923 0.0753223 -5.04711e-17)
(1.09511 0.0741042 1.00287e-16)
(1.10094 0.0723538 3.95299e-19)
(1.1067 0.0700526 1.97819e-19)
(1.11219 0.0672276 1.28668e-17)
(1.05899 0.0707055 -9.94452e-17)
(1.06424 0.0714758 -3.91141e-19)
(1.06961 0.071957 -5.01827e-17)
(1.07512 0.0721088 0)
(1.08074 0.0718855 5.03955e-17)
(1.08641 0.0712418 0)
(1.09208 0.0701343 -4.97791e-17)
(1.09772 0.0685265 -2.65058e-17)
(1.10328 0.0664001 3.96041e-19)
(1.10859 0.0637803 1.56377e-23)
(1.05724 0.0666592 -1.00041e-16)
(1.0623 0.0674095 3.90631e-19)
(1.06748 0.0678917 5.01416e-17)
(1.07281 0.0680666 -7.85527e-19)
(1.07824 0.0678907 7.87434e-19)
(1.08372 0.0673208 0)
(1.08921 0.0663155 -7.9063e-19)
(1.09466 0.0648401 3.95948e-19)
(1.10005 0.0628769 1.98225e-19)
(1.1052 0.0604488 -1.24996e-17)
(1.05555 0.0627748 9.90805e-17)
(1.06044 0.0635055 3.90121e-19)
(1.06545 0.0639875 -7.82819e-19)
(1.07061 0.0641825 1.57046e-18)
(1.07586 0.0640493 -7.87434e-19)
(1.08116 0.063547 0)
(1.08648 0.0626362 -2.53159e-17)
(1.09177 0.0612836 0)
(1.097 0.0594726 0)
(1.10201 0.0572242 1.27127e-17)
(1.05392 0.0590418 4.96434e-17)
(1.05865 0.059753 0)
(1.06351 0.060233 0)
(1.06851 0.060445 -7.84923e-19)
(1.0736 0.06035 -4.96082e-17)
(1.07875 0.0599094 0)
(1.08391 0.0590855 2.61231e-17)
(1.08905 0.0578471 -1.18985e-18)
(1.09412 0.056178 3.97262e-19)
(1.099 0.0540978 -1.27273e-17)
(1.05236 0.0554501 -9.94922e-17)
(1.05695 0.0561412 3.89106e-19)
(1.06167 0.0566174 7.81536e-19)
(1.06652 0.0568433 -5.17851e-17)
(1.07147 0.0567822 1.02366e-16)
(1.07647 0.0563974 -7.89933e-19)
(1.08149 0.0556536 2.53471e-17)
(1.08648 0.054521 -3.96952e-19)
(1.09142 0.0529845 1.98836e-19)
(1.09618 0.051062 1.99095e-19)
(1.05087 0.0519902 4.90756e-17)
(1.05533 0.0526604 3.88599e-19)
(1.05992 0.0531306 0)
(1.06464 0.0533672 4.94122e-17)
(1.06945 0.0533358 -4.96081e-17)
(1.07432 0.0530015 2.52862e-17)
(1.07921 0.0523312 7.17266e-24)
(1.08407 0.0512969 -3.97289e-19)
(1.08889 0.0498841 3.98079e-19)
(1.09353 0.0481097 0)
(1.04945 0.048653 -3.85715e-19)
(1.05379 0.049301 3.88094e-19)
(1.05826 0.0497632 0)
(1.06286 0.0500074 -5.01771e-17)
(1.06755 0.0500015 7.87426e-19)
(1.0723 0.0497127 -5.13797e-17)
(1.07706 0.0491099 -2.53784e-17)
(1.08181 0.0481667 -2.58458e-17)
(1.08651 0.0468696 1.99246e-19)
(1.09105 0.0452343 1.99556e-19)
(1.04811 0.0454296 -4.96665e-17)
(1.05234 0.0460542 4.99989e-17)
(1.0567 0.0465061 0)
(1.06119 0.046755 5.09414e-17)
(1.06577 0.0467706 -7.87428e-19)
(1.0704 0.0465226 2.5303e-17)
(1.07506 0.0459815 0)
(1.0797 0.0451229 2.50718e-17)
(1.08429 0.0439341 5.98349e-19)
(1.08873 0.0424296 -1.99787e-19)
(1.04685 0.0423118 4.88074e-17)
(1.05098 0.0429115 3.87058e-19)
(1.05524 0.0433508 7.78977e-19)
(1.05963 0.0436014 -7.83412e-19)
(1.0641 0.043635 0)
(1.06863 0.0434233 2.53114e-17)
(1.07319 0.0429388 -2.62038e-17)
(1.07773 0.0421588 2.58898e-17)
(1.08222 0.0410713 1.99657e-19)
(1.08658 0.03969 1.30012e-17)
(1.04566 0.0392916 -4.91021e-17)
(1.0497 0.0398648 -4.94825e-17)
(1.05387 0.0402894 0)
(1.05817 0.0405389 0)
(1.06255 0.040587 0)
(1.06699 0.0404075 -5.06397e-17)
(1.07145 0.0399747 7.94538e-19)
(1.0759 0.0392677 -2.67091e-17)
(1.0803 0.0382753 3.99724e-19)
(1.08457 0.0370102 -1.2816e-17)
(1.04455 0.0363613 -3.82881e-19)
(1.04851 0.0369065 3.86081e-19)
(1.0526 0.0373142 -7.777e-19)
(1.05681 0.03756 7.82804e-19)
(1.0611 0.0376194 7.87416e-19)
(1.06546 0.0374682 -7.9151e-19)
(1.06984 0.0370828 2.46461e-17)
(1.0742 0.0364436 3.98985e-19)
(1.07852 0.0355405 4.00137e-19)
(1.08272 0.0343852 0)
(1.04352 0.0335137 4.85416e-17)
(1.04741 0.0340292 3.85581e-19)
(1.05142 0.0344181 2.4866e-17)
(1.05555 0.0346576 7.82495e-19)
(1.05977 0.0347253 -3.58131e-24)
(1.06404 0.0345989 -7.91772e-19)
(1.06835 0.0342567 0)
(1.07263 0.0336808 0)
(1.07688 0.0328617 1.28176e-17)
(1.08101 0.0318103 0)
(1.04257 0.0307417 3.81522e-19)
(1.04639 0.0312261 -3.85081e-19)
(1.05034 0.0315941 -2.5622e-17)
(1.0544 0.031825 3.4422e-24)
(1.05854 0.0318983 7.87412e-19)
(1.06275 0.0317935 2.5345e-17)
(1.06698 0.0314908 2.54725e-17)
(1.0712 0.0309738 -3.99662e-19)
(1.07537 0.030234 -1.24299e-17)
(1.07944 0.0292813 0)
(1.04169 0.0280387 -3.8083e-19)
(1.04546 0.0284903 3.84582e-19)
(1.04934 0.0288357 -2.48252e-17)
(1.05334 0.0290558 0)
(1.05742 0.0291322 0)
(1.06156 0.0290461 0)
(1.06572 0.0287796 -2.54882e-17)
(1.06988 0.0283177 -1.32001e-17)
(1.07399 0.0276527 4.01381e-19)
(1.078 0.0267937 0)
(1.0409 0.0253982 -3.8014e-19)
(1.0446 0.0258156 3.84084e-19)
(1.04843 0.0261366 2.40297e-17)
(1.05237 0.026344 3.28666e-24)
(1.0564 0.0264212 7.87402e-19)
(1.06048 0.0263512 0)
(1.06459 0.0261178 7.96998e-19)
(1.06869 0.0257075 1.161e-17)
(1.07274 0.0251135 -1.24557e-17)
(1.0767 0.0243438 0)
(1.04018 0.022814 0)
(1.04384 0.0231959 2.45495e-17)
(1.04762 0.0234909 2.47845e-17)
(1.05151 0.0236838 -7.81274e-19)
(1.05548 0.0237597 7.87396e-19)
(1.05951 0.0237034 0)
(1.06356 0.0235003 1.35574e-17)
(1.06761 0.0231386 -1.20206e-18)
(1.07162 0.0226119 1.30719e-17)
(1.07552 0.0219278 2.01655e-19)
(1.03953 0.0202801 -3.78766e-19)
(1.04315 0.0206251 -2.41347e-17)
(1.04689 0.0208928 -2.39902e-17)
(1.05073 0.0210696 -3.16214e-24)
(1.05466 0.0211423 -7.8739e-19)
(1.05864 0.0210976 0)
(1.06265 0.0209226 -1.35657e-17)
(1.06665 0.0206065 4.01032e-19)
(1.07061 0.0201442 6.03947e-19)
(1.07448 0.0195419 -2.01891e-19)
(1.03896 0.0177908 3.78082e-19)
(1.04254 0.0180977 -3.82595e-19)
(1.04624 0.0183367 0)
(1.05005 0.018496 0)
(1.05393 0.018564 0)
(1.05788 0.018529 -1.26934e-17)
(1.06184 0.0183798 -1.27756e-17)
(1.0658 0.0181072 -4.01372e-19)
(1.06972 0.0177062 2.01526e-19)
(1.07355 0.0171827 2.02128e-19)
(1.03846 0.0153403 -3.774e-19)
(1.04201 0.0156082 3.82101e-19)
(1.04568 0.0158174 1.31343e-17)
(1.04945 0.0159579 -1.32661e-17)
(1.05331 0.0160198 0)
(1.05721 0.015993 2.53952e-17)
(1.06114 0.0158678 1.27835e-17)
(1.06507 0.0156363 6.02574e-18)
(1.06895 0.0152943 -6.25378e-18)
(1.07275 0.0148467 2.02365e-19)
(1.03804 0.0129233 -1.24318e-17)
(1.04156 0.0131512 1.2593e-17)
(1.0452 0.0133297 -1.23516e-17)
(1.04895 0.0134503 2.41815e-17)
(1.05277 0.0135049 7.8737e-19)
(1.05665 0.0134849 -2.54036e-17)
(1.06055 0.0133821 6.39571e-18)
(1.06444 0.0131899 -6.83501e-18)
(1.06829 0.0129047 6.86613e-18)
(1.07206 0.0125307 0)
(1.03768 0.0105345 1.24094e-17)
(1.04119 0.0107215 -3.81117e-19)
(1.04481 0.0108685 -7.71337e-19)
(1.04853 0.0109685 -1.16961e-17)
(1.05233 0.0110148 0)
(1.05618 0.0110004 1.2706e-17)
(1.06005 0.0109187 -7.19962e-18)
(1.06392 0.0107641 -5.23125e-18)
(1.06774 0.0105339 -6.06467e-19)
(1.07149 0.0102314 2.0284e-19)
(1.0374 0.0081686 -1.20117e-17)
(1.04089 0.00831425 -1.413e-24)
(1.0445 0.00842909 7.70703e-19)
(1.0482 0.00850775 -1.55887e-18)
(1.05198 0.00854492 1.57471e-18)
(1.05581 0.00853519 -7.14944e-18)
(1.05966 0.00847336 5.60316e-18)
(1.0635 0.00835513 3.62474e-18)
(1.06731 0.00817828 3.84496e-18)
(1.07103 0.00794532 -2.03079e-19)
(1.03719 0.00582059 1.16154e-17)
(1.04067 0.00592438 -1.17841e-17)
(1.04426 0.00600659 0)
(1.04795 0.00606333 0)
(1.05171 0.00609069 7.87343e-19)
(1.05553 0.00608478 5.5625e-18)
(1.05937 0.00604185 -6.40757e-18)
(1.06319 0.0059588 2.82166e-18)
(1.06698 0.00583401 -3.03867e-18)
(1.07069 0.00566924 2.03318e-19)
(1.03705 0.00348542 3.74017e-19)
(1.04053 0.0035469 -3.79643e-19)
(1.04411 0.003596 3.07775e-18)
(1.04779 0.00363021 -7.78817e-19)
(1.05154 0.00364711 3.14934e-18)
(1.05534 0.0036443 -2.38471e-18)
(1.05917 0.00361949 0)
(1.06299 0.00357076 -4.03439e-19)
(1.06676 0.00349712 4.0558e-19)
(1.07046 0.00339953 -8.14228e-19)
(1.03699 0.00115934 -3.74376e-19)
(1.04046 0.00117904 3.80234e-19)
(1.04403 0.00119503 -3.85528e-18)
(1.04771 0.00120638 7.80851e-19)
(1.05146 0.00121221 -1.5795e-18)
(1.05525 0.00121169 1.59532e-18)
(1.05907 0.00120401 0)
(1.06288 0.0011885 -4.05095e-19)
(1.06665 0.00116478 2.03669e-19)
(1.07035 0.00113311 1.02236e-18)
(1.00743 0.00677711 0)
(1.00048 0.0152759 0)
(0.998907 0.0224816 0)
(0.99884 0.0302301 0)
(0.998178 0.0383141 0)
(0.997251 0.0466546 0)
(0.996275 0.0553512 0)
(0.995258 0.0645056 0)
(0.994224 0.0742114 0)
(0.993232 0.084567 0)
(0.992351 0.0956779 0)
(0.991669 0.107655 0)
(0.991294 0.120611 0)
(0.99136 0.13466 0)
(0.992037 0.149903 0)
(0.993529 0.16642 0)
(0.99609 0.184239 0)
(1.00008 0.203277 0)
(1.006 0.223189 0)
(1.01366 0.242657 0)
(1.01044 0.0069038 0)
(1.0009 0.0155527 0)
(0.999115 0.022843 0)
(0.999479 0.0306895 0)
(0.999102 0.0388522 0)
(0.99846 0.0472432 0)
(0.997842 0.0559637 0)
(0.997247 0.0651082 0)
(0.996701 0.07476 0)
(0.996265 0.0850061 0)
(0.996014 0.0959387 0)
(0.996039 0.107652 0)
(0.996452 0.120239 0)
(0.997391 0.133789 0)
(0.999024 0.148374 0)
(1.00156 0.164039 0)
(1.00524 0.180763 0)
(1.01043 0.198367 0)
(1.01751 0.216283 0)
(1.02577 0.232943 0)
(1.01347 0.00695219 0)
(1.00132 0.0157384 0)
(0.999258 0.0230755 0)
(1.00005 0.0309638 0)
(0.999958 0.0391619 0)
(0.999585 0.0475627 0)
(0.999305 0.0562622 0)
(0.999109 0.0653491 0)
(0.999016 0.0748967 0)
(0.999091 0.0849807 0)
(0.999412 0.0956798 0)
(1.00007 0.107072 0)
(1.00118 0.119231 0)
(1.00286 0.132221 0)
(1.0053 0.146089 0)
(1.00867 0.160845 0)
(1.01321 0.176429 0)
(1.0192 0.192617 0)
(1.02695 0.208791 0)
(1.03583 0.223486 0)
(1.01652 0.00697388 0)
(1.00173 0.0158225 0)
(0.999362 0.0231839 0)
(1.00058 0.0310863 0)
(1.00075 0.0392861 0)
(1.00063 0.0476638 0)
(1.00067 0.0563095 0)
(1.00084 0.0653055 0)
(1.00116 0.0747162 0)
(1.0017 0.0846068 0)
(1.00254 0.0950437 0)
(1.00376 0.10609 0)
(1.00547 0.117803 0)
(1.00779 0.130228 0)
(1.01089 0.143389 0)
(1.01494 0.157272 0)
(1.02012 0.171793 0)
(1.02668 0.186721 0)
(1.03486 0.201466 0)
(1.04416 0.214634 0)
(1.01957 0.00696476 0)
(1.00213 0.0158156 0)
(0.999439 0.023169 0)
(1.00107 0.0310512 0)
(1.00149 0.0392148 0)
(1.00159 0.0475322 0)
(1.00192 0.0560873 0)
(1.00243 0.0649553 0)
(1.00313 0.0741923 0)
(1.00408 0.0838538 0)
(1.00537 0.0939947 0)
(1.00708 0.104666 0)
(1.00931 0.115909 0)
(1.01218 0.127754 0)
(1.01582 0.140207 0)
(1.0204 0.153239 0)