/*--------------------------------*- C++ -*----------------------------------*\
  =========                 |
  \\      /  F ield         | OpenFOAM: The Open Source CFD Toolbox
   \\    /   O peration     | Website:  https://openfoam.org
    \\  /    A nd           | Version:  6
     \\/     M anipulation  |
\*---------------------------------------------------------------------------*/
FoamFile
{
    version     2.0;
    format      ascii;
    class       volScalarField;
    location    "1.15";
    object      p;
}
// * * * * * * * * * * * * * * * * * * * * * * * * * * * * * * * * * * * * * //

dimensions      [0 2 -2 0 0 0 0];

internalField   nonuniform List<scalar> 
5600
(
994.975
996.323
997.372
997.39
997.275
997.259
997.276
997.287
997.293
997.299
997.307
997.315
997.324
997.335
997.346
997.358
997.371
997.386
997.403
997.421
994.915
996.349
997.392
997.39
997.273
997.259
997.276
997.286
997.292
997.299
997.306
997.315
997.324
997.334
997.345
997.357
997.37
997.385
997.401
997.419
994.882
996.357
997.401
997.39
997.271
997.258
997.275
997.285
997.29
997.296
997.304
997.312
997.321
997.33
997.341
997.353
997.365
997.379
997.395
997.411
994.845
996.361
997.408
997.39
997.268
997.256
997.273
997.282
997.287
997.293
997.299
997.307
997.315
997.324
997.334
997.345
997.356
997.369
997.383
997.397
994.8
996.364
997.415
997.389
997.265
997.254
997.27
997.278
997.282
997.287
997.293
997.3
997.307
997.315
997.324
997.334
997.344
997.354
997.366
997.377
994.749
996.367
997.424
997.387
997.261
997.25
997.266
997.273
997.276
997.28
997.286
997.291
997.298
997.304
997.312
997.319
997.327
997.336
997.344
997.353
994.694
996.373
997.433
997.384
997.256
997.245
997.26
997.266
997.269
997.272
997.276
997.281
997.286
997.291
997.297
997.303
997.308
997.314
997.319
997.324
994.635
996.382
997.444
997.381
997.249
997.239
997.254
997.259
997.26
997.262
997.265
997.268
997.272
997.276
997.28
997.283
997.287
997.289
997.291
997.291
994.566
996.399
997.458
997.374
997.24
997.232
997.246
997.25
997.25
997.251
997.253
997.255
997.257
997.26
997.262
997.263
997.263
997.263
997.261
997.257
994.427
996.452
997.48
997.355
997.226
997.224
997.237
997.239
997.238
997.239
997.24
997.241
997.242
997.243
997.243
997.242
997.24
997.236
997.231
997.223
997.444
997.474
997.51
997.55
997.596
997.649
997.709
997.774
997.845
998.018
997.441
997.47
997.505
997.544
997.589
997.64
997.697
997.76
997.828
998
997.431
997.459
997.492
997.53
997.572
997.62
997.674
997.732
997.795
997.962
997.414
997.439
997.47
997.505
997.545
997.588
997.637
997.689
997.746
997.904
997.389
997.412
997.44
997.472
997.507
997.546
997.588
997.633
997.682
997.828
997.359
997.378
997.403
997.431
997.461
997.494
997.529
997.565
997.605
997.737
997.323
997.338
997.361
997.384
997.409
997.435
997.462
997.489
997.517
997.632
997.285
997.296
997.315
997.333
997.352
997.371
997.389
997.406
997.423
997.517
997.243
997.25
997.266
997.279
997.292
997.304
997.313
997.321
997.327
997.398
997.2
997.206
997.217
997.225
997.232
997.236
997.236
997.233
997.225
997.271
997.163
997.171
997.176
997.177
997.174
997.165
997.148
997.121
997.092
997.127
997.123
997.128
997.126
997.12
997.11
997.091
997.063
997.025
996.984
996.997
997.081
997.08
997.072
997.06
997.042
997.016
996.979
996.934
996.886
996.876
997.036
997.03
997.017
996.999
996.974
996.94
996.896
996.844
996.79
996.759
996.99
996.979
996.961
996.938
996.907
996.867
996.816
996.758
996.699
996.651
996.944
996.928
996.906
996.878
996.842
996.797
996.741
996.679
996.616
996.552
996.898
996.879
996.853
996.821
996.781
996.732
996.673
996.608
996.544
996.466
996.855
996.833
996.804
996.769
996.726
996.674
996.614
996.548
996.483
996.392
996.815
996.79
996.759
996.722
996.677
996.625
996.565
996.499
996.433
996.332
996.779
996.752
996.72
996.681
996.636
996.584
996.524
996.459
996.393
996.283
997.158
997.118
997.076
997.033
996.99
996.947
996.906
996.866
996.83
996.797
997.145
997.106
997.066
997.027
996.988
996.948
996.91
996.874
996.841
996.811
997.129
997.092
997.055
997.019
996.983
996.948
996.913
996.881
996.85
996.822
997.114
997.079
997.045
997.013
996.98
996.947
996.916
996.886
996.858
996.832
997.101
997.069
997.037
997.007
996.977
996.947
996.919
996.891
996.866
996.841
997.089
997.059
997.03
997.002
996.975
996.947
996.921
996.896
996.872
996.849
997.078
997.051
997.024
996.998
996.973
996.948
996.923
996.9
996.878
996.856
997.069
997.043
997.018
996.995
996.971
996.948
996.925
996.903
996.883
996.863
997.06
997.036
997.013
996.991
996.969
996.948
996.927
996.907
996.887
996.868
997.052
997.03
997.009
996.988
996.968
996.948
996.928
996.909
996.891
996.874
997.046
997.025
997.005
996.986
996.967
996.948
996.93
996.912
996.895
996.878
997.039
997.02
997.002
996.984
996.966
996.948
996.931
996.914
996.898
996.882
997.034
997.016
996.998
996.982
996.965
996.948
996.932
996.916
996.901
996.886
997.028
997.012
996.996
996.98
996.964
996.948
996.933
996.918
996.904
996.89
997.024
997.008
996.993
996.978
996.963
996.948
996.934
996.92
996.906
996.893
997.019
997.005
996.99
996.976
996.962
996.949
996.935
996.922
996.909
996.896
997.016
997.002
996.988
996.975
996.962
996.949
996.936
996.923
996.911
996.898
997.012
996.999
996.986
996.974
996.961
996.949
996.936
996.924
996.912
996.901
997.009
996.996
996.984
996.972
996.96
996.948
996.937
996.925
996.914
996.903
997.006
996.994
996.983
996.971
996.96
996.948
996.937
996.926
996.916
996.905
997.003
996.992
996.981
996.97
996.959
996.948
996.938
996.927
996.917
996.907
997
996.99
996.979
996.969
996.959
996.948
996.938
996.928
996.918
996.908
996.998
996.988
996.978
996.968
996.958
996.948
996.938
996.929
996.919
996.91
996.996
996.986
996.977
996.967
996.958
996.948
996.939
996.929
996.92
996.911
996.993
996.984
996.975
996.966
996.957
996.948
996.939
996.93
996.921
996.912
996.991
996.983
996.974
996.965
996.957
996.948
996.939
996.931
996.922
996.913
996.99
996.981
996.973
996.965
996.956
996.948
996.939
996.931
996.923
996.915
996.988
996.98
996.972
996.964
996.956
996.948
996.94
996.931
996.923
996.915
996.986
996.979
996.971
996.963
996.955
996.948
996.94
996.932
996.924
996.916
996.985
996.978
996.97
996.963
996.955
996.947
996.94
996.932
996.925
996.917
996.984
996.976
996.969
996.962
996.955
996.947
996.94
996.933
996.925
996.918
996.982
996.975
996.968
996.961
996.954
996.947
996.94
996.933
996.926
996.919
996.981
996.974
996.968
996.961
996.954
996.947
996.94
996.933
996.926
996.919
996.98
996.973
996.967
996.96
996.954
996.947
996.94
996.933
996.926
996.92
996.979
996.973
996.966
996.96
996.953
996.947
996.94
996.933
996.927
996.92
996.978
996.972
996.966
996.959
996.953
996.947
996.94
996.934
996.927
996.921
996.977
996.971
996.965
996.959
996.953
996.946
996.94
996.934
996.927
996.921
996.976
996.971
996.965
996.959
996.953
996.946
996.94
996.934
996.928
996.921
996.976
996.97
996.964
996.958
996.952
996.946
996.94
996.934
996.928
996.922
996.975
996.969
996.964
996.958
996.952
996.946
996.94
996.934
996.928
996.922
996.974
996.969
996.963
996.958
996.952
996.946
996.94
996.934
996.928
996.922
996.974
996.968
996.963
996.957
996.952
996.946
996.94
996.934
996.928
996.922
996.973
996.968
996.963
996.957
996.952
996.946
996.94
996.934
996.928
996.923
996.973
996.968
996.962
996.957
996.951
996.946
996.94
996.934
996.929
996.923
996.973
996.967
996.962
996.957
996.951
996.946
996.94
996.934
996.929
996.923
996.972
996.967
996.962
996.957
996.951
996.946
996.94
996.934
996.929
996.923
996.972
996.967
996.962
996.956
996.951
996.946
996.94
996.934
996.929
996.923
996.972
996.967
996.962
996.956
996.951
996.945
996.94
996.934
996.929
996.923
996.972
996.967
996.962
996.956
996.951
996.945
996.94
996.934
996.929
996.923
996.972
996.967
996.961
996.956
996.951
996.945
996.94
996.934
996.929
996.923
994.136
996.606
997.523
997.315
997.207
997.218
997.228
997.227
997.225
997.224
997.224
997.223
997.222
997.22
997.218
997.214
997.209
997.201
997.191
997.173
994.007
996.659
997.526
997.29
997.196
997.212
997.22
997.217
997.215
997.214
997.213
997.212
997.21
997.207
997.203
997.199
997.192
997.183
997.172
997.155
993.956
996.661
997.515
997.274
997.187
997.205
997.212
997.208
997.206
997.205
997.203
997.201
997.198
997.195
997.19
997.185
997.178
997.169
997.157
997.142
993.926
996.653
997.507
997.263
997.177
997.197
997.203
997.199
997.197
997.195
997.193
997.19
997.187
997.183
997.178
997.172
997.164
997.155
997.143
997.128
993.904
996.645
997.499
997.253
997.168
997.188
997.194
997.19
997.188
997.185
997.183
997.18
997.176
997.171
997.166
997.159
997.151
997.141
997.13
997.115
993.885
996.637
997.492
997.244
997.159
997.179
997.186
997.182
997.178
997.176
997.173
997.169
997.165
997.16
997.154
997.148
997.139
997.129
997.118
997.104
993.868
996.628
997.485
997.236
997.151
997.171
997.177
997.173
997.17
997.167
997.164
997.16
997.155
997.15
997.144
997.137
997.128
997.118
997.107
997.094
993.851
996.619
997.478
997.227
997.142
997.163
997.169
997.165
997.161
997.158
997.155
997.15
997.146
997.14
997.134
997.126
997.118
997.108
997.097
997.084
993.834
996.61
997.471
997.22
997.134
997.155
997.161
997.156
997.153
997.149
997.146
997.142
997.137
997.131
997.124
997.117
997.108
997.099
997.088
997.075
993.817
996.601
997.464
997.212
997.126
997.147
997.153
997.148
997.145
997.141
997.137
997.133
997.128
997.122
997.116
997.108
997.1
997.09
997.08
997.068
993.801
996.593
997.457
997.205
997.119
997.139
997.145
997.141
997.137
997.133
997.129
997.125
997.12
997.114
997.107
997.1
997.091
997.082
997.072
997.06
993.785
996.585
997.451
997.198
997.111
997.132
997.138
997.133
997.129
997.126
997.122
997.117
997.112
997.106
997.099
997.092
997.084
997.075
997.065
997.054
993.769
996.577
997.445
997.191
997.104
997.125
997.131
997.126
997.122
997.118
997.114
997.11
997.104
997.099
997.092
997.085
997.077
997.068
997.058
997.048
993.754
996.569
997.439
997.184
997.097
997.118
997.124
997.119
997.115
997.111
997.107
997.103
997.097
997.092
997.085
997.078
997.07
997.062
997.052
997.042
993.739
996.561
997.433
997.178
997.091
997.111
997.117
997.112
997.108
997.105
997.101
997.096
997.091
997.085
997.079
997.072
997.064
997.056
997.047
997.037
993.725
996.554
997.428
997.171
997.084
997.105
997.111
997.106
997.102
997.098
997.094
997.09
997.085
997.079
997.073
997.066
997.058
997.05
997.042
997.032
993.711
996.547
997.422
997.165
997.078
997.099
997.105
997.1
997.096
997.092
997.088
997.084
997.079
997.073
997.067
997.06
997.053
997.045
997.037
997.028
993.698
996.54
997.417
997.16
997.072
997.093
997.099
997.094
997.09
997.087
997.083
997.078
997.073
997.068
997.062
997.055
997.048
997.04
997.032
997.024
993.686
996.533
997.412
997.154
997.067
997.087
997.093
997.089
997.084
997.081
997.077
997.073
997.068
997.062
997.057
997.05
997.043
997.036
997.028
997.02
993.673
996.527
997.407
997.149
997.061
997.082
997.088
997.083
997.079
997.076
997.072
997.068
997.063
997.057
997.052
997.046
997.039
997.032
997.024
997.016
993.662
996.521
997.403
997.144
997.056
997.077
997.083
997.078
997.074
997.071
997.067
997.063
997.058
997.053
997.047
997.041
997.035
997.028
997.021
997.013
993.651
996.515
997.398
997.139
997.051
997.072
997.078
997.073
997.069
997.066
997.062
997.058
997.053
997.048
997.043
997.037
997.031
997.024
997.017
997.01
993.64
996.51
997.394
997.134
997.046
997.067
997.073
997.069
997.065
997.062
997.058
997.054
997.049
997.044
997.039
997.033
997.027
997.021
997.014
997.007
993.63
996.505
997.39
997.13
997.042
997.063
997.069
997.064
997.06
997.057
997.054
997.05
997.045
997.041
997.035
997.03
997.024
997.018
997.011
997.005
993.62
996.5
997.386
997.126
997.037
997.059
997.065
997.06
997.056
997.053
997.05
997.046
997.041
997.037
997.032
997.027
997.021
997.015
997.009
997.002
993.611
996.495
997.383
997.122
997.033
997.054
997.061
997.056
997.052
997.049
997.046
997.042
997.038
997.033
997.029
997.023
997.018
997.012
997.006
997
993.602
996.49
997.379
997.118
997.029
997.051
997.057
997.052
997.049
997.046
997.042
997.039
997.035
997.03
997.026
997.021
997.015
997.01
997.004
996.998
993.594
996.486
997.376
997.114
997.026
997.047
997.053
997.049
997.045
997.042
997.039
997.035
997.031
997.027
997.023
997.018
997.013
997.007
997.002
996.996
993.586
996.482
997.373
997.111
997.022
997.044
997.05
997.046
997.042
997.039
997.036
997.032
997.028
997.024
997.02
997.015
997.01
997.005
996.999
996.994
993.578
996.478
997.37
997.108
997.019
997.04
997.047
997.042
997.039
997.036
997.033
997.03
997.026
997.022
997.017
997.013
997.008
997.003
996.997
996.992
993.571
996.475
997.367
997.105
997.016
997.037
997.044
997.039
997.036
997.033
997.03
997.027
997.023
997.019
997.015
997.011
997.006
997.001
996.996
996.99
993.565
996.471
997.365
997.102
997.013
997.034
997.041
997.037
997.033
997.031
997.028
997.024
997.021
997.017
997.013
997.008
997.004
996.999
996.994
996.989
993.559
996.468
997.362
997.099
997.01
997.032
997.038
997.034
997.031
997.028
997.025
997.022
997.018
997.015
997.011
997.006
997.002
996.997
996.992
996.987
993.553
996.465
997.36
997.097
997.008
997.029
997.036
997.032
997.028
997.026
997.023
997.02
997.016
997.013
997.009
997.005
997
996.996
996.991
996.986
993.547
996.462
997.358
997.094
997.005
997.027
997.034
997.029
997.026
997.024
997.021
997.018
997.014
997.011
997.007
997.003
996.999
996.994
996.99
996.985
993.542
996.46
997.356
997.092
997.003
997.025
997.032
997.027
997.024
997.022
997.019
997.016
997.013
997.009
997.005
997.001
996.997
996.993
996.988
996.984
993.538
996.457
997.354
997.09
997.001
997.023
997.03
997.025
997.022
997.02
997.017
997.014
997.011
997.007
997.004
997
996.996
996.992
996.987
996.983
993.533
996.455
997.353
997.088
996.999
997.021
997.028
997.024
997.02
997.018
997.015
997.013
997.009
997.006
997.002
996.999
996.995
996.99
996.986
996.982
993.529
996.453
997.351
997.086
996.997
997.019
997.026
997.022
997.019
997.017
997.014
997.011
997.008
997.005
997.001
996.997
996.993
996.989
996.985
996.981
993.526
996.451
997.35
997.085
996.996
997.018
997.025
997.021
997.017
997.015
997.013
997.01
997.007
997.003
997
996.996
996.992
996.988
996.984
996.98
993.522
996.449
997.348
997.084
996.994
997.016
997.023
997.019
997.016
997.014
997.011
997.009
997.005
997.002
996.999
996.995
996.991
996.988
996.983
996.979
993.519
996.448
997.347
997.082
996.993
997.015
997.022
997.018
997.015
997.013
997.01
997.007
997.004
997.001
996.998
996.994
996.991
996.987
996.983
996.979
993.516
996.446
997.346
997.081
996.992
997.014
997.021
997.017
997.014
997.012
997.009
997.007
997.004
997
996.997
996.994
996.99
996.986
996.982
996.978
993.514
996.445
997.345
997.08
996.991
997.013
997.02
997.016
997.013
997.011
997.008
997.006
997.003
997
996.996
996.993
996.989
996.986
996.982
996.978
993.512
996.444
997.345
997.08
996.99
997.012
997.019
997.015
997.012
997.01
997.008
997.005
997.002
996.999
996.996
996.992
996.989
996.985
996.981
996.977
993.511
996.442
997.344
997.079
996.99
997.012
997.019
997.015
997.012
997.01
997.007
997.004
997.002
996.998
996.995
996.992
996.988
996.985
996.981
996.977
993.512
996.44
997.343
997.079
996.989
997.011
997.018
997.014
997.011
997.009
997.007
997.004
997.001
996.998
996.995
996.991
996.988
996.984
996.98
996.976
993.516
996.438
997.344
997.08
996.989
997.011
997.018
997.014
997.011
997.009
997.006
997.004
997.001
996.998
996.995
996.991
996.988
996.984
996.98
996.976
993.54
996.424
997.343
997.084
996.989
997.01
997.018
997.014
997.011
997.008
997.006
997.003
997.001
996.998
996.994
996.991
996.988
996.984
996.98
996.976
993.623
996.369
997.332
997.093
996.99
997.008
997.017
997.014
997.011
997.008
997.006
997.003
997
996.997
996.994
996.991
996.987
996.984
996.98
996.976
996.631
996.595
996.562
996.533
996.503
996.47
996.435
996.397
996.36
996.291
996.635
996.599
996.566
996.537
996.508
996.476
996.443
996.407
996.372
996.312
996.629
996.598
996.568
996.542
996.514
996.484
996.453
996.42
996.387
996.335
996.622
996.596
996.568
996.544
996.518
996.491
996.462
996.431
996.402
996.358
996.616
996.594
996.569
996.546
996.522
996.496
996.469
996.442
996.415
996.381
996.611
996.592
996.57
996.549
996.526
996.502
996.477
996.451
996.427
996.401
996.608
996.591
996.571
996.551
996.529
996.507
996.483
996.46
996.438
996.419
996.605
996.59
996.572
996.553
996.533
996.511
996.488
996.466
996.447
996.433
996.605
996.59
996.574
996.555
996.535
996.514
996.492
996.471
996.453
996.442
996.605
996.591
996.575
996.557
996.537
996.516
996.494
996.473
996.455
996.447
996.615
996.624
996.633
996.642
996.65
996.659
996.667
996.675
996.683
996.691
996.698
996.705
996.712
996.719
996.725
996.731
996.737
996.743
996.748
996.754
996.759
996.763
996.768
996.772
996.777
996.781
996.785
996.788
996.792
996.795
996.799
996.802
996.805
996.808
996.811
996.814
996.817
996.82
996.822
996.825
996.828
996.83
996.833
996.836
996.839
996.842
996.845
996.849
996.852
996.856
996.611
996.62
996.63
996.639
996.648
996.657
996.665
996.673
996.681
996.689
996.697
996.704
996.711
996.718
996.724
996.73
996.736
996.742
996.748
996.753
996.758
996.763
996.767
996.772
996.776
996.78
996.784
996.788
996.791
996.795
996.798
996.801
996.805
996.808
996.811
996.814
996.816
996.819
996.822
996.825
996.827
996.83
996.833
996.836
996.839
996.842
996.845
996.848
996.852
996.855
996.607
996.615
996.626
996.636
996.645
996.654
996.663
996.671
996.679
996.687
996.695
996.702
996.709
996.716
996.723
996.729
996.735
996.741
996.747
996.752
996.757
996.762
996.767
996.771
996.775
996.779
996.783
996.787
996.791
996.794
996.798
996.801
996.804
996.807
996.81
996.813
996.816
996.819
996.821
996.824
996.827
996.829
996.832
996.835
996.838
996.841
996.844
996.847
996.85
996.853
996.602
996.61
996.622
996.632
996.642
996.651
996.66
996.669
996.677
996.685
996.693
996.701
996.708
996.715
996.722
996.728
996.734
996.74
996.746
996.751
996.756
996.761
996.766
996.77
996.775
996.779
996.783
996.787
996.79
996.794
996.797
996.8
996.804
996.807
996.81
996.812
996.815
996.818
996.821
996.823
996.826
996.829
996.831
996.834
996.836
996.839
996.842
996.845
996.848
996.851
996.597
996.604
996.617
996.629
996.639
996.648
996.658
996.667
996.675
996.684
996.692
996.699
996.707
996.714
996.72
996.727
996.733
996.739
996.745
996.75
996.755
996.76
996.765
996.769
996.774
996.778
996.782
996.786
996.789
996.793
996.796
996.8
996.803
996.806
996.809
996.812
996.814
996.817
996.82
996.822
996.825
996.827
996.83
996.832
996.835
996.837
996.84
996.843
996.845
996.848
996.591
996.598
996.613
996.625
996.636
996.646
996.656
996.665
996.674
996.682
996.69
996.698
996.705
996.712
996.719
996.726
996.732
996.738
996.744
996.749
996.754
996.759
996.764
996.769
996.773
996.777
996.781
996.785
996.789
996.792
996.796
996.799
996.802
996.805
996.808
996.811
996.813
996.816
996.819
996.821
996.824
996.826
996.828
996.831
996.833
996.835
996.837
996.84
996.842
996.844
996.587
996.592
996.609
996.623
996.634
996.644
996.654
996.663
996.672
996.681
996.689
996.697
996.704
996.712
996.718
996.725
996.731
996.737
996.743
996.748
996.753
996.758
996.763
996.768
996.772
996.776
996.78
996.784
996.788
996.791
996.795
996.798
996.801
996.804
996.807
996.81
996.812
996.815
996.817
996.82
996.822
996.824
996.827
996.829
996.831
996.833
996.835
996.837
996.839
996.84
996.584
996.589
996.608
996.622
996.633
996.643
996.653
996.663
996.672
996.681
996.689
996.696
996.704
996.711
996.718
996.724
996.73
996.736
996.742
996.747
996.753
996.758
996.762
996.767
996.771
996.775
996.779
996.783
996.787
996.79
996.794
996.797
996.8
996.803
996.806
996.808
996.811
996.813
996.816
996.818
996.82
996.822
996.824
996.826
996.828
996.83
996.831
996.833
996.834
996.836
996.582
996.588
996.608
996.623
996.634
996.644
996.654
996.664
996.672
996.681
996.689
996.696
996.704
996.711
996.717
996.724
996.73
996.736
996.741
996.747
996.752
996.757
996.762
996.766
996.77
996.774
996.778
996.782
996.786
996.789
996.793
996.796
996.799
996.802
996.804
996.807
996.809
996.812
996.814
996.816
996.818
996.82
996.822
996.824
996.825
996.827
996.828
996.829
996.83
996.831
996.584
996.595
996.615
996.628
996.639
996.649
996.658
996.667
996.675
996.683
996.691
996.698
996.705
996.712
996.718
996.724
996.73
996.736
996.741
996.747
996.752
996.756
996.761
996.765
996.77
996.774
996.778
996.781
996.785
996.788
996.791
996.794
996.797
996.8
996.803
996.805
996.808
996.81
996.812
996.814
996.816
996.818
996.819
996.821
996.822
996.823
996.824
996.825
996.826
996.826
996.637
996.632
996.632
996.639
996.647
996.655
996.663
996.671
996.679
996.686
996.693
996.7
996.707
996.714
996.72
996.726
996.732
996.737
996.743
996.748
996.753
996.757
996.762
996.766
996.77
996.774
996.778
996.781
996.785
996.788
996.791
996.794
996.797
996.8
996.802
996.805
996.807
996.809
996.811
996.813
996.814
996.816
996.817
996.819
996.82
996.821
996.821
996.822
996.822
996.822
996.651
996.648
996.646
996.651
996.657
996.664
996.67
996.677
996.684
996.691
996.698
996.704
996.711
996.717
996.723
996.728
996.734
996.739
996.744
996.749
996.754
996.758
996.762
996.767
996.771
996.774
996.778
996.781
996.785
996.788
996.791
996.794
996.796
996.799
996.801
996.804
996.806
996.808
996.81
996.811
996.813
996.814
996.816
996.817
996.817
996.818
996.819
996.819
996.819
996.819
996.659
996.659
996.658
996.662
996.667
996.673
996.679
996.685
996.691
996.697
996.703
996.709
996.715
996.72
996.726
996.731
996.736
996.741
996.746
996.751
996.755
996.759
996.763
996.767
996.771
996.775
996.778
996.782
996.785
996.788
996.791
996.793
996.796
996.798
996.801
996.803
996.805
996.807
996.808
996.81
996.811
996.813
996.814
996.815
996.815
996.816
996.816
996.816
996.816
996.815
996.668
996.67
996.669
996.672
996.677
996.681
996.686
996.692
996.697
996.703
996.708
996.714
996.719
996.724
996.729
996.734
996.739
996.744
996.748
996.752
996.757
996.761
996.765
996.768
996.772
996.775
996.779
996.782
996.785
996.788
996.79
996.793
996.795
996.798
996.8
996.802
996.804
996.806
996.807
996.809
996.81
996.811
996.812
996.812
996.813
996.813
996.813
996.813
996.813
996.812
996.677
996.679
996.68
996.682
996.686
996.69
996.694
996.699
996.704
996.708
996.713
996.718
996.723
996.728
996.733
996.737
996.742
996.746
996.75
996.754
996.758
996.762
996.766
996.769
996.773
996.776
996.779
996.782
996.785
996.788
996.79
996.793
996.795
996.797
996.799
996.801
996.803
996.804
996.806
996.807
996.808
996.809
996.81
996.81
996.811
996.811
996.811
996.81
996.81
996.809
996.687
996.689
996.69
996.692
996.695
996.698
996.702
996.706
996.71
996.715
996.719
996.723
996.728
996.732
996.736
996.74
996.745
996.749
996.753
996.756
996.76
996.764
996.767
996.77
996.774
996.777
996.78
996.782
996.785
996.788
996.79
996.792
996.795
996.797
996.798
996.8
996.802
996.803
996.805
996.806
996.807
996.807
996.808
996.808
996.809
996.809
996.808
996.808
996.807
996.806
996.697
996.699
996.7
996.702
996.704
996.707
996.71
996.713
996.717
996.721
996.724
996.728
996.732
996.736
996.74
996.744
996.748
996.751
996.755
996.758
996.762
996.765
996.768
996.772
996.775
996.777
996.78
996.783
996.785
996.788
996.79
996.792
996.794
996.796
996.798
996.799
996.801
996.802
996.803
996.804
996.805
996.806
996.806
996.806
996.807
996.806
996.806
996.805
996.804
996.803
996.708
996.708
996.709
996.711
996.713
996.715
996.718
996.72
996.723
996.727
996.73
996.733
996.737
996.74
996.744
996.747
996.751
996.754
996.757
996.761
996.764
996.767
996.77
996.773
996.776
996.778
996.781
996.783
996.786
996.788
996.79
996.792
996.794
996.796
996.797
996.799
996.8
996.801
996.802
996.803
996.804
996.804
996.805
996.805
996.805
996.804
996.804
996.803
996.802
996.8
996.718
996.718
996.719
996.72
996.721
996.723
996.725
996.727
996.73
996.733
996.736
996.739
996.742
996.745
996.748
996.751
996.754
996.757
996.76
996.763
996.766
996.769
996.771
996.774
996.777
996.779
996.781
996.784
996.786
996.788
996.79
996.792
996.793
996.795
996.797
996.798
996.799
996.8
996.801
996.802
996.802
996.803
996.803
996.803
996.803
996.802
996.802
996.801
996.799
996.798
996.728
996.727
996.728
996.729
996.73
996.731
996.733
996.734
996.737
996.739
996.741
996.744
996.746
996.749
996.752
996.754
996.757
996.76
996.763
996.765
996.768
996.771
996.773
996.775
996.778
996.78
996.782
996.784
996.786
996.788
996.79
996.792
996.793
996.795
996.796
996.797
996.798
996.799
996.8
996.801
996.801
996.801
996.801
996.801
996.801
996.8
996.8
996.799
996.797
996.795
996.738
996.737
996.737
996.737
996.738
996.739
996.74
996.741
996.743
996.745
996.747
996.749
996.751
996.753
996.756
996.758
996.761
996.763
996.765
996.768
996.77
996.772
996.775
996.777
996.779
996.781
996.783
996.785
996.787
996.789
996.79
996.792
996.793
996.794
996.796
996.797
996.798
996.798
996.799
996.8
996.8
996.8
996.8
996.8
996.799
996.799
996.798
996.797
996.795
996.794
996.747
996.745
996.745
996.745
996.746
996.746
996.747
996.748
996.749
996.751
996.752
996.754
996.756
996.758
996.76
996.762
996.764
996.766
996.768
996.77
996.772
996.774
996.776
996.778
996.78
996.782
996.784
996.786
996.787
996.789
996.79
996.792
996.793
996.794
996.795
996.796
996.797
996.798
996.798
996.799
996.799
996.799
996.799
996.799
996.798
996.797
996.796
996.795
996.794
996.792
996.756
996.754
996.754
996.753
996.753
996.753
996.754
996.754
996.755
996.756
996.757
996.759
996.76
996.762
996.764
996.765
996.767
996.769
996.771
996.773
996.775
996.776
996.778
996.78
996.782
996.783
996.785
996.786
996.788
996.789
996.791
996.792
996.793
996.794
996.795
996.796
996.796
996.797
996.798
996.798
996.798
996.798
996.798
996.797
996.797
996.796
996.795
996.794
996.792
996.791
996.765
996.762
996.762
996.761
996.76
996.76
996.76
996.76
996.761
996.762
996.763
996.764
996.765
996.766
996.767
996.769
996.77
996.772
996.774
996.775
996.777
996.778
996.78
996.782
996.783
996.785
996.786
996.787
996.789
996.79
996.791
996.792
996.793
996.794
996.795
996.796
996.796
996.797
996.797
996.797
996.797
996.797
996.797
996.796
996.796
996.795
996.794
996.793
996.791
996.789
996.773
996.77
996.769
996.768
996.767
996.767
996.766
996.766
996.767
996.767
996.768
996.768
996.769
996.77
996.771
996.772
996.774
996.775
996.776
996.778
996.779
996.78
996.782
996.783
996.784
996.786
996.787
996.788
996.789
996.79
996.791
996.792
996.793
996.794
996.795
996.795
996.796
996.796
996.796
996.797
996.796
996.796
996.796
996.796
996.795
996.794
996.793
996.792
996.79
996.789
996.78
996.777
996.776
996.775
996.774
996.773
996.772
996.772
996.772
996.772
996.772
996.773
996.773
996.774
996.775
996.776
996.777
996.778
996.779
996.78
996.781
996.782
996.784
996.785
996.786
996.787
996.788
996.789
996.79
996.791
996.792
996.793
996.793
996.794
996.795
996.795
996.796
996.796
996.796
996.796
996.796
996.796
996.795
996.795
996.794
996.793
996.792
996.791
996.79
996.788
996.787
996.784
996.783
996.781
996.78
996.779
996.778
996.777
996.777
996.777
996.777
996.777
996.778
996.778
996.779
996.779
996.78
996.781
996.782
996.783
996.784
996.784
996.785
996.786
996.787
996.788
996.789
996.79
996.791
996.792
996.792
996.793
996.794
996.794
996.795
996.795
996.795
996.796
996.796
996.796
996.796
996.795
996.795
996.794
996.794
996.793
996.792
996.791
996.789
996.788
996.794
996.791
996.789
996.787
996.786
996.784
996.783
996.783
996.782
996.782
996.781
996.781
996.782
996.782
996.782
996.783
996.783
996.784
996.784
996.785
996.786
996.787
996.787
996.788
996.789
996.79
996.79
996.791
996.792
996.792
996.793
996.794
996.794
996.795
996.795
996.795
996.795
996.796
996.796
996.795
996.795
996.795
996.794
996.794
996.793
996.792
996.791
996.79
996.789
996.787
996.8
996.797
996.795
996.793
996.791
996.79
996.789
996.788
996.787
996.786
996.786
996.785
996.785
996.785
996.785
996.786
996.786
996.786
996.787
996.787
996.788
996.788
996.789
996.79
996.79
996.791
996.792
996.792
996.793
996.793
996.794
996.794
996.795
996.795
996.795
996.795
996.795
996.795
996.795
996.795
996.795
996.795
996.794
996.794
996.793
996.792
996.791
996.79
996.789
996.787
996.806
996.803
996.801
996.799
996.797
996.795
996.793
996.792
996.791
996.79
996.79
996.789
996.789
996.789
996.789
996.789
996.789
996.789
996.789
996.79
996.79
996.79
996.791
996.791
996.792
996.792
996.793
996.793
996.794
996.794
996.794
996.795
996.795
996.795
996.795
996.796
996.796
996.796
996.795
996.795
996.795
996.795
996.794
996.793
996.793
996.792
996.791
996.79
996.789
996.787
996.812
996.808
996.806
996.804
996.801
996.8
996.798
996.797
996.795
996.794
996.794
996.793
996.793
996.792
996.792
996.792
996.792
996.792
996.792
996.792
996.792
996.792
996.793
996.793
996.793
996.794
996.794
996.794
996.795
996.795
996.795
996.795
996.796
996.796
996.796
996.796
996.796
996.796
996.795
996.795
996.795
996.795
996.794
996.793
996.793
996.792
996.791
996.79
996.789
996.788
996.817
996.813
996.811
996.808
996.806
996.804
996.802
996.801
996.799
996.798
996.797
996.797
996.796
996.795
996.795
996.795
996.794
996.794
996.794
996.794
996.794
996.794
996.794
996.795
996.795
996.795
996.795
996.795
996.795
996.796
996.796
996.796
996.796
996.796
996.796
996.796
996.796
996.796
996.796
996.795
996.795
996.795
996.794
996.793
996.793
996.792
996.791
996.79
996.789
996.788
996.821
996.818
996.815
996.813
996.81
996.808
996.806
996.805
996.803
996.802
996.801
996.8
996.799
996.798
996.798
996.797
996.797
996.797
996.796
996.796
996.796
996.796
996.796
996.796
996.796
996.796
996.796
996.796
996.796
996.797
996.797
996.797
996.797
996.797
996.797
996.796
996.796
996.796
996.796
996.796
996.795
996.795
996.794
996.794
996.793
996.792
996.791
996.791
996.79
996.788
996.826
996.822
996.819
996.817
996.814
996.812
996.81
996.808
996.807
996.805
996.804
996.803
996.802
996.801
996.8
996.8
996.799
996.799
996.799
996.798
996.798
996.798
996.798
996.798
996.798
996.798
996.797
996.797
996.797
996.797
996.797
996.797
996.797
996.797
996.797
996.797
996.797
996.796
996.796
996.796
996.795
996.795
996.794
996.794
996.793
996.792
996.792
996.791
996.79
996.789
996.829
996.826
996.823
996.821
996.818
996.816
996.814
996.812
996.81
996.809
996.807
996.806
996.805
996.804
996.803
996.802