/*--------------------------------*- C++ -*----------------------------------*\
  =========                 |
  \\      /  F ield         | OpenFOAM: The Open Source CFD Toolbox
   \\    /   O peration     | Website:  https://openfoam.org
    \\  /    A nd           | Version:  6
     \\/     M anipulation  |
\*---------------------------------------------------------------------------*/
FoamFile
{
    version     2.0;
    format      ascii;
    class       volScalarField;
    location    "1.5";
    object      p;
}
// * * * * * * * * * * * * * * * * * * * * * * * * * * * * * * * * * * * * * //

dimensions      [0 2 -2 0 0 0 0];

internalField   nonuniform List<scalar> 
5600
(
993.134
995.069
996.469
996.477
996.319
996.299
996.321
996.334
996.341
996.348
996.356
996.365
996.375
996.386
996.397
996.41
996.424
996.44
996.456
996.475
993.054
995.105
996.497
996.477
996.317
996.299
996.322
996.334
996.34
996.347
996.356
996.365
996.374
996.385
996.397
996.409
996.423
996.438
996.455
996.473
993.009
995.118
996.51
996.477
996.315
996.299
996.322
996.333
996.339
996.346
996.354
996.362
996.372
996.382
996.393
996.405
996.418
996.433
996.449
996.465
992.959
995.126
996.521
996.478
996.313
996.298
996.32
996.331
996.336
996.342
996.349
996.358
996.366
996.376
996.386
996.397
996.409
996.422
996.436
996.451
992.9
995.134
996.533
996.478
996.311
996.296
996.318
996.328
996.332
996.337
996.344
996.351
996.359
996.367
996.376
996.386
996.396
996.407
996.419
996.431
992.833
995.144
996.546
996.477
996.307
996.293
996.315
996.323
996.326
996.331
996.336
996.342
996.349
996.356
996.363
996.372
996.38
996.389
996.398
996.406
992.761
995.156
996.562
996.476
996.302
996.289
996.31
996.317
996.319
996.322
996.327
996.332
996.337
996.342
996.348
996.354
996.36
996.366
996.372
996.376
992.685
995.175
996.58
996.474
996.296
996.284
996.304
996.31
996.31
996.312
996.316
996.319
996.323
996.327
996.331
996.335
996.338
996.341
996.343
996.343
992.596
995.204
996.6
996.467
996.286
996.277
996.297
996.301
996.301
996.302
996.304
996.306
996.308
996.31
996.312
996.314
996.314
996.314
996.312
996.308
992.413
995.28
996.632
996.444
996.271
996.271
996.289
996.291
996.289
996.289
996.29
996.292
996.292
996.293
996.293
996.292
996.29
996.286
996.281
996.272
996.499
996.531
996.567
996.609
996.656
996.711
996.772
996.839
996.913
997.089
996.496
996.526
996.562
996.602
996.649
996.701
996.76
996.825
996.894
997.07
996.486
996.515
996.549
996.588
996.632
996.681
996.736
996.796
996.861
997.031
996.468
996.495
996.527
996.563
996.603
996.648
996.698
996.752
996.81
996.972
996.443
996.466
996.496
996.529
996.565
996.604
996.648
996.694
996.744
996.894
996.412
996.431
996.458
996.487
996.517
996.551
996.587
996.624
996.664
996.799
996.376
996.391
996.414
996.438
996.464
996.49
996.518
996.545
996.574
996.691
996.336
996.347
996.367
996.386
996.405
996.424
996.443
996.46
996.477
996.573
996.293
996.3
996.316
996.33
996.343
996.355
996.365
996.372
996.377
996.449
996.249
996.254
996.266
996.275
996.281
996.285
996.285
996.281
996.272
996.319
996.211
996.219
996.224
996.225
996.222
996.213
996.194
996.167
996.136
996.17
996.17
996.174
996.172
996.166
996.155
996.136
996.107
996.067
996.024
996.037
996.126
996.125
996.117
996.104
996.086
996.058
996.02
995.972
995.922
995.911
996.079
996.073
996.06
996.041
996.015
995.98
995.934
995.879
995.822
995.791
996.032
996.02
996.002
995.978
995.946
995.904
995.851
995.79
995.728
995.678
995.984
995.968
995.945
995.916
995.879
995.831
995.774
995.709
995.643
995.577
995.937
995.917
995.89
995.857
995.816
995.765
995.704
995.636
995.568
995.488
995.893
995.869
995.839
995.803
995.758
995.705
995.642
995.573
995.505
995.412
995.851
995.825
995.793
995.754
995.708
995.654
995.591
995.523
995.454
995.35
995.814
995.786
995.752
995.713
995.666
995.611
995.549
995.481
995.412
995.299
996.206
996.164
996.12
996.077
996.032
995.988
995.945
995.904
995.867
995.833
996.192
996.152
996.111
996.07
996.029
995.989
995.949
995.912
995.878
995.846
996.175
996.137
996.099
996.062
996.025
995.988
995.953
995.919
995.887
995.858
996.16
996.124
996.089
996.055
996.021
995.988
995.955
995.925
995.896
995.869
996.146
996.113
996.081
996.05
996.018
995.988
995.958
995.93
995.903
995.878
996.134
996.103
996.073
996.045
996.016
995.988
995.961
995.935
995.91
995.886
996.123
996.095
996.067
996.04
996.014
995.988
995.963
995.939
995.916
995.894
996.113
996.087
996.061
996.037
996.012
995.988
995.965
995.943
995.921
995.9
996.105
996.08
996.056
996.033
996.011
995.988
995.967
995.946
995.926
995.906
996.097
996.074
996.052
996.03
996.009
995.989
995.968
995.949
995.93
995.912
996.089
996.068
996.048
996.028
996.008
995.989
995.97
995.952
995.934
995.917
996.083
996.063
996.044
996.026
996.007
995.989
995.971
995.954
995.937
995.921
996.077
996.059
996.041
996.023
996.006
995.989
995.972
995.956
995.94
995.925
996.072
996.055
996.038
996.022
996.005
995.989
995.973
995.958
995.943
995.928
996.067
996.051
996.035
996.02
996.004
995.989
995.974
995.96
995.946
995.932
996.063
996.047
996.033
996.018
996.004
995.989
995.975
995.961
995.948
995.935
996.059
996.044
996.03
996.017
996.003
995.989
995.976
995.963
995.95
995.937
996.055
996.041
996.028
996.015
996.002
995.989
995.977
995.964
995.952
995.94
996.052
996.039
996.026
996.014
996.002
995.989
995.977
995.965
995.954
995.942
996.048
996.036
996.025
996.013
996.001
995.989
995.978
995.966
995.955
995.944
996.046
996.034
996.023
996.012
996
995.989
995.978
995.967
995.957
995.946
996.043
996.032
996.021
996.011
996
995.989
995.979
995.968
995.958
995.948
996.04
996.03
996.02
996.01
995.999
995.989
995.979
995.969
995.959
995.949
996.038
996.028
996.018
996.009
995.999
995.989
995.979
995.97
995.96
995.951
996.036
996.026
996.017
996.008
995.998
995.989
995.98
995.97
995.961
995.952
996.034
996.025
996.016
996.007
995.998
995.989
995.98
995.971
995.962
995.953
996.032
996.023
996.015
996.006
995.997
995.989
995.98
995.971
995.963
995.954
996.03
996.022
996.014
996.005
995.997
995.989
995.98
995.972
995.964
995.955
996.029
996.021
996.013
996.005
995.997
995.988
995.98
995.972
995.964
995.956
996.027
996.019
996.012
996.004
995.996
995.988
995.98
995.973
995.965
995.957
996.026
996.018
996.011
996.003
995.996
995.988
995.981
995.973
995.965
995.958
996.024
996.017
996.01
996.003
995.995
995.988
995.981
995.973
995.966
995.958
996.023
996.016
996.009
996.002
995.995
995.988
995.981
995.973
995.966
995.959
996.022
996.015
996.009
996.002
995.995
995.988
995.981
995.974
995.967
995.96
996.021
996.015
996.008
996.001
995.995
995.988
995.981
995.974
995.967
995.96
996.02
996.014
996.007
996.001
995.994
995.988
995.981
995.974
995.967
995.961
996.019
996.013
996.007
996
995.994
995.987
995.981
995.974
995.968
995.961
996.018
996.012
996.006
996
995.994
995.987
995.981
995.974
995.968
995.961
996.018
996.012
996.006
996
995.993
995.987
995.981
995.974
995.968
995.962
996.017
996.011
996.005
995.999
995.993
995.987
995.981
995.975
995.968
995.962
996.016
996.011
996.005
995.999
995.993
995.987
995.981
995.975
995.969
995.962
996.016
996.01
996.004
995.999
995.993
995.987
995.981
995.975
995.969
995.963
996.015
996.01
996.004
995.998
995.993
995.987
995.981
995.975
995.969
995.963
996.015
996.009
996.004
995.998
995.993
995.987
995.981
995.975
995.969
995.963
996.014
996.009
996.004
995.998
995.992
995.987
995.981
995.975
995.969
995.963
996.014
996.009
996.003
995.998
995.992
995.987
995.981
995.975
995.969
995.963
996.014
996.009
996.003
995.998
995.992
995.986
995.981
995.975
995.969
995.963
996.014
996.008
996.003
995.998
995.992
995.986
995.981
995.975
995.969
995.963
996.014
996.008
996.003
995.998
995.992
995.986
995.981
995.975
995.969
995.963
996.013
996.008
996.003
995.998
995.992
995.986
995.981
995.975
995.969
995.963
992.033
995.487
996.692
996.395
996.25
996.266
996.28
996.278
996.275
996.275
996.274
996.273
996.272
996.27
996.268
996.264
996.258
996.251
996.239
996.221
991.865
995.56
996.696
996.363
996.239
996.262
996.272
996.269
996.266
996.264
996.263
996.261
996.259
996.256
996.253
996.248
996.241
996.232
996.22
996.203
991.802
995.565
996.683
996.345
996.229
996.255
996.264
996.259
996.256
996.255
996.253
996.25
996.248
996.244
996.239
996.234
996.226
996.217
996.205
996.189
991.769
995.558
996.673
996.332
996.219
996.246
996.255
996.25
996.247
996.245
996.242
996.239
996.236
996.232
996.226
996.22
996.212
996.202
996.19
996.175
991.745
995.55
996.665
996.321
996.209
996.237
996.246
996.241
996.237
996.235
996.232
996.229
996.225
996.22
996.214
996.207
996.199
996.189
996.177
996.162
991.726
995.541
996.657
996.311
996.199
996.228
996.237
996.232
996.228
996.225
996.222
996.218
996.214
996.208
996.202
996.195
996.186
996.176
996.164
996.15
991.708
995.532
996.649
996.302
996.19
996.219
996.228
996.223
996.219
996.216
996.212
996.208
996.203
996.198
996.191
996.184
996.175
996.165
996.153
996.139
991.69
995.523
996.641
996.293
996.181
996.21
996.219
996.214
996.21
996.207
996.203
996.198
996.193
996.188
996.181
996.173
996.164
996.154
996.143
996.129
991.673
995.514
996.634
996.285
996.173
996.202
996.211
996.205
996.201
996.198
996.194
996.189
996.184
996.178
996.171
996.164
996.155
996.145
996.133
996.12
991.655
995.505
996.627
996.277
996.165
996.194
996.202
996.197
996.193
996.189
996.185
996.18
996.175
996.169
996.162
996.154
996.146
996.136
996.125
996.112
991.638
995.496
996.62
996.269
996.157
996.186
996.195
996.189
996.184
996.181
996.177
996.172
996.167
996.16
996.154
996.146
996.137
996.127
996.117
996.105
991.621
995.488
996.613
996.262
996.149
996.178
996.187
996.181
996.177
996.173
996.169
996.164
996.159
996.152
996.146
996.138
996.129
996.12
996.109
996.098
991.604
995.48
996.607
996.254
996.142
996.171
996.179
996.174
996.169
996.166
996.161
996.156
996.151
996.145
996.138
996.13
996.122
996.113
996.103
996.092
991.588
995.472
996.601
996.247
996.134
996.164
996.172
996.166
996.162
996.158
996.154
996.149
996.144
996.138
996.131
996.123
996.115
996.106
996.097
996.086
991.573
995.464
996.595
996.241
996.127
996.157
996.165
996.16
996.155
996.151
996.147
996.142
996.137
996.131
996.124
996.117
996.109
996.1
996.091
996.081
991.558
995.456
996.589
996.234
996.121
996.15
996.159
996.153
996.148
996.145
996.141
996.136
996.13
996.124
996.118
996.111
996.103
996.095
996.086
996.076
991.543
995.449
996.584
996.228
996.114
996.144
996.152
996.147
996.142
996.139
996.134
996.13
996.124
996.118
996.112
996.105
996.098
996.089
996.081
996.071
991.529
995.442
996.578
996.222
996.108
996.138
996.146
996.141
996.136
996.133
996.128
996.124
996.118
996.113
996.106
996.1
996.092
996.084
996.076
996.067
991.516
995.436
996.573
996.216
996.102
996.132
996.141
996.135
996.13
996.127
996.123
996.118
996.113
996.107
996.101
996.095
996.088
996.08
996.072
996.063
991.503
995.429
996.568
996.211
996.097
996.126
996.135
996.129
996.125
996.121
996.117
996.113
996.108
996.102
996.096
996.09
996.083
996.076
996.068
996.06
991.49
995.423
996.563
996.205
996.091
996.121
996.13
996.124
996.12
996.116
996.112
996.108
996.103
996.097
996.092
996.086
996.079
996.072
996.064
996.056
991.478
995.417
996.559
996.2
996.086
996.116
996.125
996.119
996.115
996.111
996.107
996.103
996.098
996.093
996.087
996.081
996.075
996.068
996.061
996.053
991.467
995.412
996.555
996.196
996.081
996.111
996.12
996.114
996.11
996.107
996.103
996.098
996.094
996.089
996.083
996.077
996.071
996.065
996.058
996.05
991.456
995.406
996.551
996.191
996.076
996.106
996.115
996.11
996.105
996.102
996.098
996.094
996.09
996.085
996.079
996.074
996.068
996.061
996.055
996.048
991.446
995.401
996.547
996.187
996.072
996.102
996.111
996.105
996.101
996.098
996.094
996.09
996.086
996.081
996.076
996.07
996.064
996.058
996.052
996.045
991.436
995.396
996.543
996.182
996.068
996.098
996.107
996.101
996.097
996.094
996.09
996.086
996.082
996.077
996.072
996.067
996.061
996.055
996.049
996.043
991.427
995.392
996.539
996.179
996.064
996.094
996.103
996.097
996.093
996.09
996.087
996.083
996.079
996.074
996.069
996.064
996.059
996.053
996.047
996.04
991.418
995.387
996.536
996.175
996.06
996.09
996.099
996.094
996.09
996.087
996.083
996.08
996.075
996.071
996.066
996.061
996.056
996.05
996.044
996.038
991.41
995.383
996.533
996.171
996.056
996.087
996.096
996.09
996.086
996.083
996.08
996.076
996.072
996.068
996.063
996.059
996.053
996.048
996.042
996.036
991.402
995.379
996.53
996.168
996.053
996.083
996.092
996.087
996.083
996.08
996.077
996.073
996.069
996.065
996.061
996.056
996.051
996.046
996.04
996.034
991.395
995.376
996.527
996.165
996.05
996.08
996.089
996.084
996.08
996.077
996.074
996.071
996.067
996.063
996.058
996.054
996.049
996.044
996.038
996.033
991.388
995.372
996.524
996.162
996.047
996.077
996.086
996.081
996.077
996.075
996.072
996.068
996.064
996.06
996.056
996.052
996.047
996.042
996.037
996.031
991.381
995.369
996.522
996.159
996.044
996.074
996.084
996.078
996.075
996.072
996.069
996.066
996.062
996.058
996.054
996.049
996.045
996.04
996.035
996.03
991.375
995.366
996.52
996.156
996.041
996.072
996.081
996.076
996.072
996.07
996.067
996.063
996.06
996.056
996.052
996.048
996.043
996.038
996.033
996.028
991.369
995.363
996.517
996.154
996.039
996.069
996.079
996.074
996.07
996.067
996.065
996.061
996.058
996.054
996.05
996.046
996.041
996.037
996.032
996.027
991.364
995.36
996.515
996.152
996.036
996.067
996.076
996.071
996.068
996.065
996.062
996.059
996.056
996.052
996.048
996.044
996.04
996.035
996.031
996.026
991.359
995.358
996.513
996.15
996.034
996.065
996.074
996.069
996.066
996.063
996.061
996.057
996.054
996.051
996.047
996.043
996.039
996.034
996.03
996.025
991.354
995.355
996.512
996.148
996.032
996.063
996.073
996.068
996.064
996.062
996.059
996.056
996.053
996.049
996.045
996.041
996.037
996.033
996.028
996.024
991.35
995.353
996.51
996.146
996.03
996.061
996.071
996.066
996.062
996.06
996.057
996.054
996.051
996.048
996.044
996.04
996.036
996.032
996.027
996.023
991.346
995.351
996.509
996.144
996.029
996.06
996.069
996.064
996.061
996.059
996.056
996.053
996.05
996.046
996.043
996.039
996.035
996.031
996.027
996.022
991.342
995.35
996.507
996.143
996.027
996.058
996.068
996.063
996.06
996.057
996.055
996.052
996.049
996.045
996.042
996.038
996.034
996.03
996.026
996.021
991.339
995.348
996.506
996.142
996.026
996.057
996.067
996.062
996.058
996.056
996.054
996.051
996.047
996.044
996.041
996.037
996.033
996.029
996.025
996.021
991.336
995.346
996.505
996.14
996.025
996.056
996.066
996.061
996.057
996.055
996.053
996.05
996.047
996.043
996.04
996.036
996.032
996.028
996.024
996.02
991.333
995.345
996.504
996.14
996.024
996.055
996.065
996.06
996.056
996.054
996.052
996.049
996.046
996.043
996.039
996.036
996.032
996.028
996.024
996.02
991.331
995.344
996.503
996.139
996.023
996.054
996.064
996.059
996.056
996.053
996.051
996.048
996.045
996.042
996.038
996.035
996.031
996.027
996.023
996.019
991.329
995.342
996.503
996.139
996.023
996.054
996.063
996.058
996.055
996.053
996.05
996.047
996.044
996.041
996.038
996.034
996.031
996.027
996.023
996.019
991.331
995.34
996.502
996.139
996.022
996.053
996.063
996.058
996.054
996.052
996.05
996.047
996.044
996.041
996.038
996.034
996.03
996.027
996.023
996.019
991.337
995.337
996.503
996.14
996.022
996.052
996.062
996.058
996.054
996.052
996.049
996.047
996.044
996.041
996.037
996.034
996.03
996.026
996.022
996.018
991.369
995.319
996.502
996.145
996.022
996.051
996.062
996.057
996.054
996.052
996.049
996.046
996.043
996.04
996.037
996.034
996.03
996.026
996.022
996.018
991.478
995.248
996.488
996.156
996.023
996.049
996.062
996.057
996.054
996.052
996.049
996.046
996.043
996.04
996.037
996.033
996.03
996.026
996.022
996.018
995.66
995.623
995.59
995.56
995.528
995.494
995.458
995.42
995.381
995.311
995.665
995.628
995.594
995.564
995.533
995.501
995.466
995.43
995.394
995.332
995.659
995.627
995.596
995.569
995.54
995.51
995.477
995.444
995.41
995.356
995.652
995.625
995.596
995.571
995.544
995.516
995.486
995.455
995.425
995.38
995.646
995.623
995.597
995.573
995.548
995.522
995.494
995.466
995.439
995.404
995.641
995.621
995.598
995.576
995.552
995.528
995.502
995.476
995.451
995.425
995.637
995.619
995.599
995.578
995.556
995.533
995.508
995.484
995.463
995.443
995.634
995.619
995.6
995.581
995.559
995.537
995.514
995.491
995.471
995.458
995.634
995.619
995.602
995.583
995.562
995.54
995.518
995.496
995.477
995.467
995.634
995.62
995.603
995.584
995.564
995.542
995.52
995.499
995.48
995.472
995.644
995.653
995.663
995.672
995.681
995.689
995.698
995.706
995.715
995.722
995.73
995.738
995.745
995.751
995.758
995.764
995.771
995.776
995.782
995.787
995.793
995.797
995.802
995.807
995.811
995.815
995.819
995.823
995.827
995.83
995.834
995.837
995.84
995.843
995.847
995.849
995.852
995.855
995.858
995.861
995.864
995.866
995.869
995.872
995.875
995.878
995.881
995.885
995.889
995.892
995.641
995.65
995.66
995.669
995.678
995.687
995.696
995.705
995.713
995.721
995.729
995.736
995.743
995.75
995.757
995.763
995.769
995.775
995.781
995.787
995.792
995.797
995.801
995.806
995.81
995.815
995.819
995.823
995.826
995.83
995.833
995.837
995.84
995.843
995.846
995.849
995.852
995.855
995.858
995.861
995.863
995.866
995.869
995.872
995.875
995.878
995.881
995.884
995.888
995.891
995.636
995.645
995.656
995.666
995.675
995.685
995.694
995.702
995.711
995.719
995.727
995.734
995.742
995.749
995.756
995.762
995.768
995.774
995.78
995.786
995.791
995.796
995.801
995.805
995.81
995.814
995.818
995.822
995.826
995.829
995.833
995.836
995.839
995.843
995.846
995.849
995.852
995.854
995.857
995.86
995.863
995.865
995.868
995.871
995.874
995.877
995.88
995.883
995.887
995.89
995.631
995.639
995.651
995.662
995.672
995.682
995.691
995.7
995.709
995.717
995.725
995.733
995.74
995.747
995.754
995.761
995.767
995.773
995.779
995.785
995.79
995.795
995.8
995.805
995.809
995.813
995.817
995.821
995.825
995.829
995.832
995.836
995.839
995.842
995.845
995.848
995.851
995.854
995.856
995.859
995.862
995.865
995.867
995.87
995.873
995.875
995.878
995.881
995.884
995.887
995.625
995.633
995.647
995.659
995.669
995.679
995.688
995.698
995.707
995.715
995.723
995.731
995.739
995.746
995.753
995.76
995.766
995.772
995.778
995.784
995.789
995.794
995.799
995.804
995.808
995.813
995.817
995.821
995.824
995.828
995.832
995.835
995.838
995.841
995.844
995.847
995.85
995.853
995.856
995.858
995.861
995.863
995.866
995.868
995.871
995.874
995.876
995.879
995.882
995.884
995.62
995.627
995.642
995.655
995.666
995.676
995.686
995.696
995.705
995.714
995.722
995.73
995.738
995.745
995.752
995.759
995.765
995.771
995.777
995.783
995.788
995.793
995.798
995.803
995.807
995.812
995.816
995.82
995.824
995.827
995.831
995.834
995.837
995.84
995.843
995.846
995.849
995.852
995.854
995.857
995.86
995.862
995.864
995.867
995.869
995.871
995.874
995.876
995.878
995.88
995.616
995.621
995.638
995.652
995.664
995.674
995.685
995.694
995.704
995.712
995.721
995.729
995.737
995.744
995.751
995.758
995.764
995.77
995.776
995.782
995.787
995.792
995.797
995.802
995.807
995.811
995.815
995.819
995.823
995.826
995.83
995.833
995.836
995.839
995.842
995.845
995.848
995.851
995.853
995.856
995.858
995.86
995.862
995.865
995.867
995.869
995.871
995.873
995.875
995.876
995.613
995.618
995.637
995.651
995.663
995.674
995.684
995.694
995.703
995.712
995.72
995.728
995.736
995.743
995.75
995.757
995.763
995.77
995.775
995.781
995.786
995.792
995.796
995.801
995.806
995.81
995.814
995.818
995.822
995.825
995.829
995.832
995.835
995.838
995.841
995.844
995.847
995.849
995.852
995.854
995.856
995.858
995.86
995.862
995.864
995.866
995.867
995.869
995.87
995.872
995.611
995.617
995.637
995.652
995.664
995.674
995.685
995.694
995.704
995.712
995.72
995.728
995.736
995.743
995.75
995.757
995.763
995.769
995.775
995.78
995.786
995.791
995.796
995.8
995.805
995.809
995.813
995.817
995.821
995.824
995.828
995.831
995.834
995.837
995.84
995.842
995.845
995.847
995.85
995.852
995.854
995.856
995.858
995.86
995.861
995.863
995.864
995.865
995.866
995.867
995.612
995.624
995.644
995.658
995.669
995.679
995.689
995.698
995.707
995.715
995.723
995.73
995.737
995.744
995.751
995.757
995.763
995.769
995.775
995.78
995.785
995.79
995.795
995.8
995.804
995.808
995.812
995.816
995.82
995.823
995.826
995.83
995.833
995.836
995.838
995.841
995.843
995.846
995.848
995.85
995.852
995.854
995.855
995.857
995.858
995.859
995.86
995.861
995.861
995.862
995.667
995.661
995.662
995.669
995.677
995.685
995.694
995.702
995.71
995.718
995.725
995.733
995.739
995.746
995.753
995.759
995.765
995.771
995.776
995.781
995.786
995.791
995.796
995.8
995.805
995.809
995.812
995.816
995.82
995.823
995.826
995.829
995.832
995.835
995.838
995.84
995.842
995.845
995.847
995.848
995.85
995.852
995.853
995.854
995.856
995.856
995.857
995.857
995.858
995.858
995.681
995.678
995.677
995.681
995.688
995.694
995.702
995.709
995.716
995.723
995.73
995.737
995.743
995.749
995.755
995.761
995.767
995.772
995.778
995.783
995.788
995.792
995.797
995.801
995.805
995.809
995.813
995.816
995.82
995.823
995.826
995.829
995.832
995.834
995.837
995.839
995.841
995.843
995.845
995.847
995.849
995.85
995.851
995.852
995.853
995.854
995.854
995.854
995.854
995.854
995.689
995.69
995.689
995.693
995.698
995.704
995.71
995.716
995.723
995.729
995.735
995.741
995.747
995.753
995.759
995.764
995.77
995.775
995.78
995.784
995.789
995.793
995.798
995.802
995.806
995.809
995.813
995.816
995.82
995.823
995.826
995.829
995.831
995.834
995.836
995.838
995.84
995.842
995.844
995.846
995.847
995.848
995.849
995.85
995.851
995.851
995.852
995.852
995.851
995.851
995.699
995.701
995.7
995.704
995.708
995.713
995.718
995.724
995.729
995.735
995.741
995.746
995.752
995.757
995.762
995.767
995.772
995.777
995.782
995.786
995.791
995.795
995.799
995.803
995.806
995.81
995.813
995.817
995.82
995.823
995.826
995.828
995.831
995.833
995.835
995.837
995.839
995.841
995.843
995.844
995.845
995.847
995.847
995.848
995.849
995.849
995.849
995.849
995.848
995.847
995.709
995.711
995.711
995.714
995.718
995.722
995.726
995.731
995.736
995.741
995.746
995.751
995.756
995.761
995.766
995.771
995.775
995.78
995.784
995.788
995.792
995.796
995.8
995.804
995.807
995.811
995.814
995.817
995.82
995.823
995.825
995.828
995.83
995.832
995.835
995.837
995.838
995.84
995.841
995.843
995.844
995.845
995.846
995.846
995.846
995.846
995.846
995.846
995.845
995.844
995.719
995.721
995.722
995.724
995.727
995.731
995.734
995.738
995.743
995.747
995.752
995.756
995.761
995.765
995.77
995.774
995.778
995.782
995.786
995.79
995.794
995.798
995.801
995.805
995.808
995.811
995.814
995.817
995.82
995.823
995.825
995.828
995.83
995.832
995.834
995.836
995.837
995.839
995.84
995.841
995.842
995.843
995.844
995.844
995.844
995.844
995.844
995.843
995.842
995.841
995.729
995.731
995.732
995.734
995.736
995.739
995.742
995.746
995.75
995.753
995.757
995.761
995.765
995.77
995.774
995.777
995.781
995.785
995.789
995.793
995.796
995.8
995.803
995.806
995.809
995.812
995.815
995.818
995.82
995.823
995.825
995.827
995.829
995.831
995.833
995.835
995.836
995.838
995.839
995.84
995.841
995.841
995.842
995.842
995.842
995.842
995.841
995.841
995.839
995.838
995.74
995.741
995.742
995.743
995.745
995.748
995.75
995.753
995.756
995.76
995.763
995.767
995.77
995.774
995.778
995.781
995.785
995.788
995.792
995.795
995.798
995.801
995.804
995.807
995.81
995.813
995.816
995.818
995.821
995.823
995.825
995.827
995.829
995.831
995.833
995.834
995.835
995.837
995.838
995.839
995.839
995.84
995.84
995.84
995.84
995.84
995.839
995.838
995.837
995.835
995.751
995.751
995.752
995.753
995.754
995.756
995.758
995.761
995.763
995.766
995.769
995.772
995.775
995.778
995.782
995.785
995.788
995.791
995.794
995.797
995.8
995.803
995.806
995.809
995.811
995.814
995.816
995.819
995.821
995.823
995.825
995.827
995.829
995.83
995.832
995.833
995.835
995.836
995.837
995.837
995.838
995.838
995.839
995.839
995.838
995.838
995.837
995.836
995.835
995.833
995.761
995.761
995.761
995.762
995.763
995.764
995.766
995.768
995.77
995.772
995.775
995.777
995.78
995.783
995.786
995.789
995.791
995.794
995.797
995.8
995.802
995.805
995.808
995.81
995.813
995.815
995.817
995.819
995.821
995.823
995.825
995.827
995.829
995.83
995.831
995.833
995.834
995.835
995.836
995.836
995.837
995.837
995.837
995.837
995.837
995.836
995.835
995.834
995.833
995.831
995.771
995.77
995.77
995.771
995.771
995.772
995.773
995.775
995.777
995.779
995.781
995.783
995.785
995.787
995.79
995.792
995.795
995.797
995.8
995.802
995.805
995.807
995.809
995.812
995.814
995.816
995.818
995.82
995.822
995.824
995.825
995.827
995.828
995.83
995.831
995.832
995.833
995.834
995.835
995.835
995.836
995.836
995.836
995.835
995.835
995.834
995.833
995.832
995.831
995.829
995.781
995.779
995.779
995.779
995.779
995.78
995.781
995.782
995.783
995.785
995.786
995.788
995.79
995.792
995.794
995.796
995.798
995.8
995.803
995.805
995.807
995.809
995.811
995.813
995.815
995.817
995.819
995.821
995.823
995.824
995.826
995.827
995.828
995.83
995.831
995.832
995.833
995.833
995.834
995.834
995.835
995.835
995.834
995.834
995.834
995.833
995.832
995.831
995.829
995.827
995.79
995.788
995.788
995.788
995.787
995.787
995.788
995.788
995.789
995.79
995.792
995.793
995.795
995.796
995.798
995.8
995.802
995.804
995.806
995.807
995.809
995.811
995.813
995.815
995.817
995.818
995.82
995.822
995.823
995.825
995.826
995.827
995.828
995.83
995.831
995.831
995.832
995.833
995.833
995.833
995.834
995.834
995.833
995.833
995.832
995.832
995.831
995.829
995.828
995.826
995.799
995.797
995.796
995.795
995.795
995.794
995.795
995.795
995.795
995.796
995.797
995.798
995.799
995.801
995.802
995.804
995.805
995.807
995.808
995.81
995.812
995.813
995.815
995.817
995.818
995.82
995.821
995.823
995.824
995.825
995.826
995.828
995.829
995.83
995.83
995.831
995.832
995.832
995.833
995.833
995.833
995.833
995.832
995.832
995.831
995.831
995.83
995.828
995.827
995.825
995.808
995.805
995.804
995.803
995.802
995.801
995.801
995.801
995.801
995.802
995.802
995.803
995.804
995.805
995.806
995.807
995.809
995.81
995.811
995.813
995.814
995.815
995.817
995.818
995.82
995.821
995.822
995.824
995.825
995.826
995.827
995.828
995.829
995.83
995.83
995.831
995.831
995.832
995.832
995.832
995.832
995.832
995.832
995.831
995.831
995.83
995.829
995.828
995.826
995.824
995.815
995.812
995.811
995.81
995.809
995.808
995.807
995.807
995.807
995.807
995.807
995.808
995.808
995.809
995.81
995.811
995.812
995.813
995.814
995.815
995.816
995.818
995.819
995.82
995.821
995.822
995.823
995.825
995.826
995.827
995.827
995.828
995.829
995.83
995.83
995.831
995.831
995.832
995.832
995.832
995.832
995.831
995.831
995.831
995.83
995.829
995.828
995.827
995.825
995.824
995.823
995.82
995.818
995.817
995.815
995.814
995.813
995.813
995.812
995.812
995.812
995.812
995.813
995.813
995.814
995.814
995.815
995.816
995.817
995.818
995.819
995.82
995.821
995.822
995.823
995.824
995.825
995.826
995.826
995.827
995.828
995.829
995.829
995.83
995.83
995.831
995.831
995.831
995.831
995.831
995.831
995.831
995.831
995.83
995.829
995.829
995.828
995.826
995.825
995.823
995.83
995.826
995.825
995.823
995.821
995.82
995.819
995.818
995.817
995.817
995.817
995.817
995.817
995.817
995.817
995.818
995.818
995.819
995.82
995.82
995.821
995.822
995.823
995.823
995.824
995.825
995.826
995.827
995.827
995.828
995.829
995.829
995.83
995.83
995.831
995.831
995.831
995.831
995.831
995.831
995.831
995.831
995.83
995.83
995.829
995.828
995.827
995.826
995.825
995.823
995.836
995.833
995.831
995.829
995.827
995.825
995.824
995.823
995.822
995.822
995.821
995.821
995.821
995.821
995.821
995.821
995.821
995.822
995.822
995.823
995.823
995.824
995.825
995.825
995.826
995.826
995.827
995.828
995.828
995.829
995.829
995.83
995.83
995.831
995.831
995.831
995.831
995.831
995.831
995.831
995.831
995.831
995.83
995.829
995.829
995.828
995.827
995.826
995.825
995.823
995.842
995.839
995.837
995.834
995.832
995.831
995.829
995.828
995.827
995.826
995.825
995.825
995.824
995.824
995.824
995.824
995.824
995.825
995.825
995.825
995.826
995.826
995.826
995.827
995.827
995.828
995.828
995.829
995.829
995.83
995.83
995.83
995.831
995.831
995.831
995.831
995.831
995.831
995.831
995.831
995.831
995.83
995.83
995.829
995.829
995.828
995.827
995.826
995.825
995.823
995.848
995.844
995.842
995.84
995.837
995.835
995.834
995.832
995.831
995.83
995.829
995.829
995.828
995.828
995.827
995.827
995.827
995.827
995.827
995.827
995.828
995.828
995.828
995.829
995.829
995.829
995.83
995.83
995.83
995.831
995.831
995.831
995.831
995.831
995.832
995.832
995.832
995.832
995.831
995.831
995.831
995.83
995.83
995.829
995.829
995.828
995.827
995.826
995.825
995.824
995.853
995.849
995.847
995.844
995.842
995.84
995.838
995.837
995.835
995.834
995.833
995.832
995.832
995.831
995.831
995.83
995.83
995.83
995.83
995.83
995.83
995.83
995.83
995.83
995.83
995.831
995.831
995.831
995.831
995.831
995.832
995.832
995.832
995.832
995.832
995.832
995.832
995.832
995.832
995.831
995.831
995.831
995.83
995.829
995.829
995.828
995.827
995.826
995.825
995.824
995.858
995.854
995.852
995.849
995.847
995.844
995.842
995.841
995.839
995.838
995.837
995.836
995.835
995.834
995.834
995.833
995.833
995.832
995.832
995.832
995.832
995.832
995.832
995.832
995.832
995.832
995.832
995.832
995.832
995.832
995.832
995.832
995.832
995.832
995.832
995.832
995.832
995.832
995.832
995.832
995.831
995.831
995.83
995.83
995.829
995.828
995.827
995.827
995.826
995.825
995.862
995.858
995.856
995.853
995.851
995.848
995.846
995.845
995.843
995.841
995.84
995.839
995.838
995.837
995.836
995.836
995.835
995.835
995.834
995.834
995.834
995.834
995.834
995.833
995.833
995.833
995.833
995.833
995.833
995.833
995.833
995.833
995.833
995.833
995.833
995.833
995.833
995.832
995.832
995.832
995.831
995.831
995.83
995.83
995.829
995.829
995.828
995.827
995.826
995.825
995.866
995.863
995.86
995.857
995.855
995.852
995.85
995.848
995.846
995.845
995.843
995.842
995.841
995.84
995.839