/*--------------------------------*- C++ -*----------------------------------*\
  =========                 |
  \\      /  F ield         | OpenFOAM: The Open Source CFD Toolbox
   \\    /   O peration     | Website:  https://openfoam.org
    \\  /    A nd           | Version:  6
     \\/     M anipulation  |
\*---------------------------------------------------------------------------*/
FoamFile
{
    version     2.0;
    format      ascii;
    class       surfaceScalarField;
    location    "1.5";
    object      phi;
}
// * * * * * * * * * * * * * * * * * * * * * * * * * * * * * * * * * * * * * //

dimensions      [0 3 -1 0 0 0 0];

internalField   nonuniform List<scalar> 
11030
(
0.00012173
6.41083e-07
0.000121802
-7.18113e-08
0.000121545
2.57076e-07
0.000120963
5.81367e-07
0.000120457
5.06071e-07
0.000120021
4.35804e-07
0.000119551
4.70169e-07
0.000119014
5.36851e-07
0.000118408
6.06408e-07
0.000117722
6.85941e-07
0.00011694
7.81635e-07
0.000116046
8.94483e-07
0.000115021
1.0253e-06
0.000113845
1.17603e-06
0.000112495
1.34918e-06
0.000110948
1.54727e-06
0.000109176
1.77218e-06
0.000107153
2.02344e-06
0.000104857
2.29508e-06
2.56585e-06
0.000102292
0.000122759
2.28376e-07
0.000122273
4.14149e-07
0.000121539
9.91594e-07
0.000120969
1.1505e-06
0.000120472
1.00379e-06
0.000119956
9.51017e-07
0.000119402
1.02503e-06
0.000118798
1.14035e-06
0.000118132
1.27269e-06
0.000117386
1.43193e-06
0.000116543
1.62446e-06
0.000115586
1.8516e-06
0.000114496
2.11538e-06
0.000113252
2.41963e-06
0.000111832
2.76906e-06
0.000110211
3.16847e-06
0.000108362
3.62137e-06
0.000106259
4.12664e-06
0.000103882
4.67208e-06
5.2196e-06
0.000101228
0.000122285
2.01849e-07
0.000122069
6.30608e-07
0.000121525
1.53527e-06
0.000120943
1.73287e-06
0.000120406
1.54009e-06
0.000119861
1.49693e-06
0.000119269
1.61705e-06
0.00011862
1.78921e-06
0.000117903
1.98918e-06
0.000117104
2.23141e-06
0.000116205
2.5236e-06
0.000115189
2.86749e-06
0.000114038
3.26626e-06
0.000112732
3.72548e-06
0.000111249
4.25198e-06
0.000109565
4.8527e-06
0.000107653
5.53272e-06
0.00010549
6.29036e-06
0.000103054
7.10774e-06
7.93256e-06
0.000100341
0.000122086
2.7231e-07
0.000121847
8.69122e-07
0.000121357
2.02561e-06
0.000120809
2.28104e-06
0.000120281
2.0679e-06
0.00011973
2.04753e-06
0.000119122
2.22504e-06
0.000118447
2.46477e-06
0.000117695
2.74113e-06
0.000116853
3.07307e-06
0.000115907
3.46991e-06
0.00011484
3.93394e-06
0.000113637
4.46945e-06
0.000112279
5.0837e-06
0.000110745
5.78547e-06
0.000109014
6.58368e-06
0.000107062
7.48489e-06
0.000104866
8.48695e-06
0.000102407
9.56653e-06
1.06593e-05
9.96802e-05
0.000121899
4.18921e-07
0.000121614
1.15437e-06
0.000121149
2.49066e-06
0.000120636
2.79449e-06
0.000120128
2.57533e-06
0.000119584
2.59193e-06
0.00011897
2.83915e-06
0.000118277
3.15787e-06
0.000117497
3.52055e-06
0.00011662
3.95006e-06
0.000115633
4.45708e-06
0.000114523
5.04431e-06
0.000113275
5.71704e-06
0.000111875
6.48408e-06
0.000110304
7.35592e-06
0.000108545
8.34322e-06
0.000106576
9.45379e-06
0.000104378
1.06849e-05
0.000101936
1.2008e-05
1.3349e-05
9.92467e-05
0.00012169
6.5598e-07
0.000121357
1.48693e-06
0.00012093
2.91821e-06
0.000120462
3.26274e-06
0.000119981
3.05641e-06
0.000119445
3.12733e-06
0.000118826
3.45846e-06
0.000118115
3.86869e-06
0.000117307
4.32819e-06
0.000116394
4.86301e-06
0.000115367
5.48484e-06
0.000114214
6.19665e-06
0.000112927
7.00464e-06
0.000111492
7.91897e-06
0.000109896
8.95157e-06
0.000108125
1.01144e-05
0.000106162
1.14164e-05
0.000103993
1.28541e-05
0.000101607
1.43943e-05
1.59551e-05
9.90009e-05
0.000121401
1.05378e-06
0.00012103
1.85784e-06
0.000120706
3.24175e-06
0.000120316
3.65339e-06
0.000119864
3.50848e-06
0.000119332
3.6585e-06
0.000118701
4.09018e-06
0.000117963
4.60657e-06
0.000117117
5.1738e-06
0.00011616
5.82039e-06
0.000115085
6.55934e-06
0.000113888
7.39411e-06
0.000112561
8.33187e-06
0.000111096
9.38394e-06
0.000109484
1.05634e-05
0.000107715
1.18832e-05
0.000105779
1.33527e-05
0.000103664
1.49684e-05
0.000101365
1.66934e-05
1.84416e-05
9.88789e-05
0.000120871
1.8431e-06
0.000120516
2.21288e-06
0.000120487
3.27111e-06
0.000120232
3.90819e-06
0.000119796
3.94489e-06
0.000119252
4.20276e-06
0.00011859
4.75154e-06
0.000117806
5.39089e-06
0.000116904
6.07581e-06
0.000115887
6.83726e-06
0.000114755
7.69146e-06
0.000113506
8.64327e-06
0.000112137
9.70092e-06
0.000110644
1.08768e-05
0.000109023
1.21846e-05
0.000107268
1.36378e-05
0.000105375
1.52462e-05
0.000103337
1.70063e-05
0.00010115
1.88804e-05
2.0786e-05
9.88052e-05
0.000119555
3.81412e-06
0.000119724
2.04397e-06
0.000120426
2.56924e-06
0.000120291
4.043e-06
0.000119791
4.44426e-06
0.000119194
4.80024e-06
0.00011847
5.47526e-06
0.000117608
6.25362e-06
0.000116623
7.06039e-06
0.000115528
7.93271e-06
0.000114325
8.89435e-06
0.000113015
9.95249e-06
0.0001116
1.11162e-05
0.000110078
1.23984e-05
0.00010845
1.38126e-05
0.000106716
1.53718e-05
0.000104877
1.70858e-05
0.000102931
1.89525e-05
0.000100875
2.09358e-05
2.29516e-05
9.87097e-05
0.00011729
8.0073e-06
0.000119649
-3.14508e-07
0.000121001
1.21702e-06
0.000120574
4.46993e-06
0.000119867
5.15118e-06
0.000119143
5.52489e-06
0.000118295
6.32278e-06
0.000117314
7.23432e-06
0.000116225
8.14967e-06
0.000115039
9.11899e-06
0.000113759
1.01746e-05
0.000112386
1.13251e-05
0.000110923
1.25795e-05
0.000109371
1.39499e-05
0.000107735
1.54484e-05
0.000106022
1.70855e-05
0.000104239
1.8868e-05
0.000102397
2.07945e-05
0.000100483
2.28505e-05
9.84745e-05
2.49598e-05
9.15759e-05
1.07157e-05
8.0711e-05
1.08649e-05
6.96806e-05
1.10303e-05
5.84771e-05
1.12035e-05
4.7111e-05
1.13661e-05
3.56511e-05
1.14599e-05
2.43101e-05
1.13411e-05
1.36147e-05
1.06954e-05
4.69391e-06
8.92082e-06
4.69391e-06
9.05883e-05
2.13554e-05
7.97959e-05
2.16574e-05
6.88432e-05
2.1983e-05
5.7725e-05
2.23217e-05
4.64555e-05
2.26356e-05
3.51084e-05
2.2807e-05
2.38987e-05
2.25508e-05
1.33509e-05
2.12432e-05
4.63126e-06
1.76404e-05
9.32516e-06
8.97631e-05
3.19333e-05
7.90318e-05
3.23887e-05
6.81456e-05
3.28693e-05
5.71007e-05
3.33666e-05
4.59134e-05
3.38229e-05
3.46604e-05
3.406e-05
2.35609e-05
3.36502e-05
1.31431e-05
3.1661e-05
4.54664e-06
2.62369e-05
1.38718e-05
8.91388e-05
4.24747e-05
7.84474e-05
4.30801e-05
6.76082e-05
4.37084e-05
5.66178e-05
4.4357e-05
4.54922e-05
4.49486e-05
3.43097e-05
4.52425e-05
2.32931e-05
4.46668e-05
1.29731e-05
4.1981e-05
4.47823e-06
3.47317e-05
1.835e-05
8.87191e-05
5.30023e-05
7.80449e-05
5.37542e-05
6.72314e-05
5.4522e-05
5.62731e-05
5.53152e-05
4.51848e-05
5.60369e-05
3.4046e-05
5.63812e-05
2.30834e-05
5.56295e-05
1.2833e-05
5.22315e-05
4.41889e-06
4.31458e-05
2.27689e-05
8.84695e-05
6.35336e-05
7.7794e-05
6.44298e-05
6.69866e-05
6.53294e-05
5.60388e-05
6.62631e-05
4.49634e-05
6.71123e-05
3.38419e-05
6.75027e-05
2.29071e-05
6.65643e-05
1.27042e-05
6.24344e-05
4.35898e-06
5.1491e-05
2.71279e-05
8.83299e-05
7.40827e-05
7.7638e-05
7.51216e-05
6.68207e-05
7.61468e-05
5.58633e-05
7.72205e-05
4.47778e-05
7.81977e-05
3.36504e-05
7.86301e-05
2.27238e-05
7.74909e-05
1.25574e-05
7.26008e-05
4.28377e-06
5.97646e-05
3.14117e-05
8.82189e-05
8.4669e-05
7.74962e-05
8.58443e-05
6.66547e-05
8.69882e-05
5.56687e-05
8.82065e-05
4.45533e-05
8.93132e-05
3.34033e-05
8.97801e-05
2.24772e-05
8.8417e-05
1.23537e-05
8.27243e-05
4.17403e-06
6.79442e-05
3.55857e-05
8.80189e-05
9.53597e-05
7.72465e-05
9.66168e-05
6.63646e-05
9.787e-05
5.53338e-05
9.92374e-05
4.41796e-05
0.000100467
3.30082e-05
0.000100952
2.20969e-05
9.93284e-05
1.2044e-05
9.27771e-05
4.00291e-06
7.59854e-05
3.95886e-05
8.74691e-05
0.000106365
7.66629e-05
0.000107423
6.57261e-05
0.000108807
5.46579e-05
0.000110306
4.34925e-05
0.000111633
3.23406e-05
0.000112103
2.14929e-05
0.000110176
1.15599e-05
0.00010271
3.71672e-06
8.38286e-05
4.33053e-05
3.38144e-05
0.000112119
-3.95687e-05
2.80866e-05
0.000113151
2.24422e-05
0.000114451
1.69279e-05
0.00011582
1.16947e-05
0.000116866
7.01292e-06
0.000116785
3.26428e-06
0.000113925
8.47037e-07
0.000105127
-7.49091e-08
8.47505e-05
4.32304e-05
2.7512e-05
0.000117285
-3.26778e-05
2.23221e-05
0.000118341
1.72221e-05
0.000119551
1.23252e-05
0.000120717
7.80237e-06
0.000121389
3.92492e-06
0.000120663
1.04606e-06
0.000116804
-4.98356e-07
0.000106672
-6.37509e-07
8.48897e-05
4.25929e-05
2.12166e-05
0.000121897
-2.58283e-05
1.65876e-05
0.00012297
1.20758e-05
0.000124063
7.82577e-06
0.000124967
4.03475e-06
0.00012518
9.77493e-07
0.00012372
-1.0206e-06
0.000118802
-1.6917e-06
0.000107343
-1.07837e-06
8.42763e-05
4.15145e-05
1.49935e-05
0.000125965
-1.90615e-05
1.09447e-05
0.000127019
7.04912e-06
0.000127958
3.47322e-06
0.000128543
4.34268e-07
0.000128219
-1.79256e-06
0.000125947
-2.91306e-06
0.000119922
-2.73514e-06
0.000107165
-1.43092e-06
8.29721e-05
4.00836e-05
8.89159e-06
0.00012949
-1.24162e-05
5.432e-06
0.000130478
2.17337e-06
0.000131217
-7.04307e-07
0.00013142
-2.97256e-06
0.000130487
-4.36323e-06
0.000127337
-4.62069e-06
0.00012018
-3.63568e-06
0.00010618
-1.71089e-06
8.10473e-05
3.83727e-05
2.94261e-06
0.000132469
-5.9219e-06
7.9772e-08
0.000133341
-2.52587e-06
0.000133823
-4.68599e-06
0.00013358
-6.16941e-06
0.00013197
-6.72379e-06
0.000127892
-6.14082e-06
0.000119597
-4.39954e-06
0.000104439
-1.92695e-06
7.85747e-05
3.64458e-05
-2.83215e-06
0.000134899
4.02432e-07
-5.09017e-06
0.000135599
-7.02879e-06
0.000135761
-8.45572e-06
0.000135007
-9.14486e-06
0.00013266
-8.86882e-06
0.000127616
-7.475e-06
0.000118203
-5.03422e-06
0.000101998
-2.08738e-06
7.56279e-05
3.43584e-05
-8.42067e-06
0.000136772
6.54713e-06
-1.00636e-05
0.000137242
-1.1321e-05
0.000137019
-1.2001e-05
0.000135687
-1.18899e-05
0.000132549
-1.07945e-05
0.00012652
-8.62569e-06
0.000116034
-5.54726e-06
9.89195e-05
-2.1996e-06
7.22802e-05
3.21588e-05
-1.38166e-05
0.000138081
1.25081e-05
-1.48302e-05
0.000138256
-1.53888e-05
0.000137577
-1.53062e-05
0.000135605
-1.43898e-05
0.000131632
-1.24906e-05
0.000124621
-9.59105e-06
0.000113134
-5.94518e-06
9.52736e-05
-2.27138e-06
6.86064e-05
2.98874e-05
-1.90111e-05
1.8291e-05
0.000138801
-1.93639e-05
0.000138608
-1.91917e-05
0.000137405
-1.83231e-05
0.000134736
-1.65983e-05
0.000129907
-1.39244e-05
0.000121947
-1.03601e-05
0.00010957
-6.23773e-06
9.11513e-05
-2.32014e-06
6.46888e-05
2.75673e-05
8.63779e-05
-4.01681e-05
-8.57786e-05
8.72048e-05
-3.35047e-05
8.82325e-05
-2.6856e-05
8.94036e-05
-2.02326e-05
9.0677e-05
-1.36896e-05
9.20054e-05
-7.25026e-06
9.33378e-05
-9.29939e-07
9.46235e-05
5.26142e-06
9.58149e-05
1.13167e-05
1.72489e-05
9.6857e-05
8.72022e-05
-4.0586e-05
-8.67842e-05
8.78106e-05
-3.41132e-05
8.86199e-05
-2.76653e-05
8.95872e-05
-2.11999e-05
9.0675e-05
-1.47775e-05
9.18427e-05
-8.41798e-06
9.30469e-05
-2.1341e-06
9.42442e-05
4.06416e-06
9.53929e-05
1.0168e-05
1.61942e-05
9.64476e-05
8.78937e-05
-4.07921e-05
-8.76877e-05
8.8309e-05
-3.45285e-05
8.89199e-05
-2.82761e-05
8.96967e-05
-2.19767e-05
9.06071e-05
-1.56879e-05
9.16171e-05
-9.428e-06
9.26908e-05
-3.20779e-06
9.37921e-05
2.96288e-06
9.48857e-05
9.07433e-06
1.51442e-05
9.59356e-05
8.84836e-05
-4.08415e-05
-8.84342e-05
8.87325e-05
-3.47773e-05
8.91671e-05
-2.87107e-05
8.97681e-05
-2.25777e-05
9.05104e-05
-1.64301e-05
9.13671e-05
-1.02846e-05
9.23095e-05
-4.15023e-06
9.33087e-05
1.96364e-06
9.43358e-05
8.04723e-06
1.41176e-05
9.53625e-05
8.89661e-05
-4.07662e-05
-8.90415e-05
8.90756e-05
-3.48867e-05
8.93582e-05
-2.89933e-05
8.9803e-05
-2.30226e-05
9.03921e-05
-1.70192e-05
9.11054e-05
-1.09979e-05
9.19211e-05
-4.96596e-06
9.28169e-05
1.06781e-06
9.37699e-05
7.09426e-06
1.31294e-05
9.47581e-05
8.93428e-05
-4.05822e-05
-8.95268e-05
8.93326e-05
-3.48765e-05
8.94851e-05
-2.91458e-05
8.97947e-05
-2.33322e-05
9.02488e-05
-1.74734e-05
9.0833e-05
-1.1582e-05
9.15314e-05
-5.66435e-06
9.23274e-05
2.71806e-07
9.32034e-05
6.21818e-06
1.21898e-05
9.4143e-05
8.96233e-05
-4.03017e-05
-8.99039e-05
8.95088e-05
-3.4762e-05
8.95494e-05
-2.91865e-05
8.97426e-05
-2.35253e-05
9.00794e-05
-1.78102e-05
9.05497e-05
-1.20523e-05
9.11422e-05
-6.25686e-06
9.1845e-05
-4.31e-07
9.26452e-05
5.41799e-06
1.13043e-05
9.35307e-05
8.98193e-05
-3.99352e-05
-9.01857e-05
8.96131e-05
-3.45558e-05
8.9557e-05
-2.91304e-05
8.96498e-05
-2.3618e-05
8.98852e-05
-1.80456e-05
9.02559e-05
-1.2423e-05
9.07543e-05
-6.7552e-06
9.13719e-05
-1.04862e-06
9.20996e-05
4.69025e-06
1.04749e-05
9.2929e-05
8.99426e-05
-3.94926e-05
-9.03853e-05
8.96557e-05
-3.42688e-05
8.95153e-05
-2.899e-05
8.95211e-05
-2.36238e-05
8.96685e-05
-1.81931e-05
8.99525e-05
-1.2707e-05
9.03677e-05
-7.17039e-06
9.09085e-05
-1.5894e-06
9.15686e-05
4.03016e-06
9.7011e-06
9.23424e-05
9.00045e-05
-3.89822e-05
-9.05149e-05
8.96462e-05
-3.39105e-05
8.9432e-05
-2.87758e-05
8.93619e-05
-2.35537e-05
8.94328e-05
-1.8264e-05
8.9641e-05
-1.29152e-05
8.99829e-05
-7.51229e-06
9.04548e-05
-2.06134e-06
9.10527e-05
3.43232e-06
8.98073e-06
9.1773e-05
9.00153e-05
-3.84117e-05
-9.05858e-05
8.95937e-05
-3.34889e-05
8.93145e-05
-2.84966e-05
8.91779e-05
-2.34171e-05
8.91817e-05
-1.82678e-05
8.93233e-05
-1.30568e-05
8.96005e-05
-7.78946e-06
9.00109e-05
-2.47171e-06
9.05519e-05
2.89132e-06
8.31085e-06
9.12218e-05
8.99842e-05
-3.77877e-05
-9.06082e-05
8.95065e-05
-3.30111e-05
8.91696e-05
-2.81597e-05
8.89742e-05
-2.32217e-05
8.89189e-05
-1.82125e-05
8.90018e-05
-1.31398e-05
8.92216e-05
-8.00925e-06
8.95769e-05
-2.82698e-06
9.00662e-05
2.40204e-06
7.68815e-06
9.06889e-05
8.99194e-05
-3.71162e-05
-9.0591e-05
8.93916e-05
-3.24833e-05
8.90035e-05
-2.77716e-05
8.87559e-05
-2.29742e-05
8.86481e-05
-1.81046e-05
8.86789e-05
-1.31706e-05
8.88475e-05
-8.17787e-06
8.91532e-05
-3.13275e-06
8.95955e-05
1.95983e-06
7.10926e-06
9.01744e-05
8.98277e-05
-3.6402e-05
-9.05419e-05
8.92552e-05
-3.19107e-05
8.88213e-05
-2.73378e-05
8.85272e-05
-2.26801e-05
8.83725e-05
-1.79499e-05
8.83566e-05
-1.31547e-05
8.84794e-05
-8.30058e-06
8.87405e-05
-3.39385e-06
8.91398e-05
1.56052e-06
6.57095e-06
8.96781e-05
8.97151e-05
-3.56497e-05
-9.04675e-05
8.91025e-05
-3.1298e-05
8.86276e-05
-2.68629e-05
8.82917e-05
-2.23442e-05
8.80949e-05
-1.77531e-05
8.80372e-05
-1.3097e-05
8.81185e-05
-8.38191e-06
8.83391e-05
-3.61445e-06
8.86992e-05
1.20043e-06
6.07023e-06
8.91999e-05
8.95866e-05
-3.48631e-05
-9.03732e-05
8.89378e-05
-3.06493e-05
8.8426e-05
-2.63511e-05
8.80526e-05
-2.19707e-05
8.78179e-05
-1.75184e-05
8.77222e-05
-1.30013e-05
8.7766e-05
-8.42572e-06
8.79497e-05
-3.79816e-06
8.82738e-05
8.76325e-07
5.60434e-06
8.87397e-05
8.94461e-05
-3.40456e-05
-9.02636e-05
8.87648e-05
-2.9968e-05
8.82197e-05
-2.5806e-05
8.78123e-05
-2.15633e-05
8.75433e-05
-1.72494e-05
8.74133e-05
-1.28713e-05
8.74229e-05
-8.43536e-06
8.75729e-05
-3.94812e-06
8.78639e-05
5.85343e-07
5.1708e-06
8.82974e-05
8.9297e-05
-3.32001e-05
-9.01425e-05
8.85865e-05
-2.92575e-05
8.80112e-05
-2.52308e-05
8.7573e-05
-2.11251e-05
8.72729e-05
-1.69492e-05
8.71116e-05
-1.271e-05
8.709e-05
-8.41379e-06
8.7209e-05
-4.06712e-06
8.74694e-05
3.24934e-07
4.76735e-06
8.78728e-05
8.91422e-05
-3.23294e-05
-9.00129e-05
8.84051e-05
-2.85204e-05
8.78026e-05
-2.46283e-05
8.73365e-05
-2.06589e-05
8.70079e-05
-1.66207e-05
8.6818e-05
-1.25201e-05
8.67679e-05
-8.36361e-06
8.68583e-05
-4.1576e-06
8.70905e-05
9.28182e-08
4.39192e-06
8.74659e-05
8.89839e-05
-3.14358e-05
-8.98775e-05
8.82228e-05
-2.77593e-05
8.75955e-05
-2.4001e-05
8.71039e-05
-2.01673e-05
8.67495e-05
-1.62663e-05
8.65335e-05
-1.23041e-05
8.6457e-05
-8.28715e-06
8.65212e-05
-4.22178e-06
8.67271e-05
-1.13064e-07
4.04263e-06
8.70764e-05
8.8824e-05
-3.05215e-05
-8.97384e-05
8.80411e-05
-2.69763e-05
8.73912e-05
-2.33511e-05
8.68765e-05
-1.96526e-05
8.64984e-05
-1.58882e-05
8.62584e-05
-1.20641e-05
8.61578e-05
-8.18649e-06
8.61976e-05
-4.26165e-06
8.63792e-05
-2.94588e-07
3.71773e-06
8.67041e-05
8.8664e-05
-2.95883e-05
-8.95972e-05
8.78613e-05
-2.61736e-05
8.71909e-05
-2.26807e-05
8.6655e-05
-1.91167e-05
8.62553e-05
-1.54885e-05
8.59933e-05
-1.18021e-05
8.58704e-05
-8.06354e-06
8.58877e-05
-4.27903e-06
8.60466e-05
-4.53468e-07
3.41563e-06
8.63487e-05
8.85052e-05
-2.8638e-05
-8.94555e-05
8.76845e-05
-2.53528e-05
8.69954e-05
-2.19917e-05
8.64402e-05
-1.85615e-05
8.60207e-05
-1.5069e-05
8.57384e-05
-1.15198e-05
8.55949e-05
-7.92002e-06
8.55914e-05
-4.27556e-06
8.57292e-05
-5.91283e-07
3.13482e-06
8.601e-05
8.83486e-05
-2.76722e-05
-8.93144e-05
8.75115e-05
-2.45157e-05
8.68054e-05
-2.12856e-05
8.62325e-05
-1.79887e-05
8.57948e-05
-1.46313e-05
8.54939e-05
-1.12189e-05
8.53314e-05
-7.7575e-06
8.53086e-05
-4.25277e-06
8.54268e-05
-7.09496e-07
2.87391e-06
8.56877e-05
8.81951e-05
-2.66923e-05
-8.9175e-05
8.7343e-05
-2.36636e-05
8.66214e-05
-2.05639e-05
8.60323e-05
-1.73996e-05
8.55779e-05
-1.41768e-05
8.52599e-05
-1.09009e-05
8.50798e-05
-7.57742e-06
8.50391e-05
-4.21206e-06
8.5139e-05
-8.0946e-07
2.6316e-06
8.53814e-05
8.80454e-05
-2.56995e-05
-8.90381e-05
8.71797e-05
-2.2798e-05
8.64438e-05
-1.9828e-05
8.584e-05
-1.67958e-05
8.53702e-05
-1.37071e-05
8.50364e-05
-1.0567e-05
8.48401e-05
-7.3811e-06
8.47827e-05
-4.15473e-06
8.48657e-05
-8.92435e-07
2.40666e-06
8.50907e-05
8.79e-05
-2.46951e-05
-8.89045e-05
8.7022e-05
-2.192e-05
8.62731e-05
-1.90791e-05
8.56557e-05
-1.61784e-05
8.51719e-05
-1.32232e-05
8.48234e-05
-1.02186e-05
8.46121e-05
-7.16977e-06
8.45393e-05
-4.08197e-06
8.46065e-05
-9.59593e-07
2.19795e-06
8.48152e-05
8.77596e-05
-2.36801e-05
-8.87746e-05
8.68703e-05
-2.10308e-05
8.61095e-05
-1.83183e-05
8.54797e-05
-1.55485e-05
8.49828e-05
-1.27264e-05
8.4621e-05
-9.85672e-06
8.43957e-05
-6.94454e-06
8.43087e-05
-3.9949e-06
8.43611e-05
-1.01203e-06
2.00439e-06
8.45547e-05
8.76244e-05
-2.26554e-05
-8.86491e-05
8.67248e-05
-2.01312e-05
8.59532e-05
-1.75467e-05
8.53119e-05
-1.49072e-05
8.48032e-05
-1.22176e-05
8.44289e-05
-9.48244e-06
8.41908e-05
-6.70646e-06
8.40904e-05
-3.89454e-06
8.41292e-05
-1.05077e-06
1.82496e-06
8.43086e-05
8.74948e-05
-2.16219e-05
-8.85283e-05
8.65859e-05
-1.92223e-05
8.58043e-05
-1.67651e-05
8.51526e-05
-1.42555e-05
8.46328e-05
-1.16979e-05
8.42471e-05
-9.0967e-06
8.39971e-05
-6.45647e-06
8.38844e-05
-3.78185e-06
8.39104e-05
-1.07676e-06
1.65872e-06
8.40767e-05
8.73711e-05
-2.05804e-05
-8.84125e-05
8.64536e-05
-1.83048e-05
8.5663e-05
-1.59745e-05
8.50016e-05
-1.35941e-05
8.44718e-05
-1.11681e-05
8.40755e-05
-8.7004e-06
8.38145e-05
-6.19549e-06
8.36904e-05
-3.65773e-06
8.37045e-05
-1.09091e-06
1.50475e-06
8.38585e-05
8.72534e-05
-1.95317e-05
-8.83022e-05
8.63282e-05
-1.73796e-05
8.55292e-05
-1.51755e-05
8.48591e-05
-1.2924e-05
8.43199e-05
-1.0629e-05
8.39139e-05
-8.29436e-06
8.36427e-05
-5.92432e-06
8.3508e-05
-3.52302e-06
8.35112e-05
-1.09405e-06
1.36223e-06
8.36537e-05
8.71421e-05
-1.84765e-05
-8.81973e-05
8.62097e-05
-1.64472e-05
8.54032e-05
-1.43689e-05
8.47249e-05
-1.22457e-05
8.41772e-05
-1.00813e-05
8.37622e-05
-7.87933e-06
8.34816e-05
-5.64374e-06
8.33371e-05
-3.37849e-06
8.333e-05
-1.08697e-06
1.23033e-06
8.34619e-05
8.70371e-05
-1.74152e-05
-8.80983e-05
8.60983e-05
-1.55084e-05
8.52848e-05
-1.35554e-05
8.45991e-05
-1.15601e-05
8.40436e-05
-9.52578e-06
8.36203e-05
-7.45603e-06
8.3331e-05
-5.35448e-06
8.31774e-05
-3.22486e-06
8.31609e-05
-1.07042e-06
1.10832e-06
8.32829e-05
8.69385e-05
-1.63486e-05
-8.80051e-05
8.59939e-05
-1.45638e-05
8.5174e-05
-1.27356e-05
8.44816e-05
-1.08676e-05
8.39189e-05
-8.96306e-06
8.3488e-05
-7.0251e-06
8.31907e-05
-5.05719e-06
8.30287e-05
-3.06284e-06
8.30033e-05
-1.04508e-06
9.95472e-07
8.31162e-05
8.68465e-05
-1.52771e-05
-8.7918e-05
8.58966e-05
-1.36138e-05
8.5071e-05
-1.191e-05
8.43724e-05
-1.0169e-05
8.3803e-05
-8.39373e-06
8.33651e-05
-6.58717e-06
8.30604e-05
-4.75252e-06
8.28906e-05
-2.89306e-06
8.28572e-05
-1.01163e-06
8.91107e-07
8.29615e-05
8.67611e-05
-1.42013e-05
-8.7837e-05
8.58063e-05
-1.2659e-05
8.49755e-05
-1.10792e-05
8.42712e-05
-9.46475e-06
8.36958e-05
-7.81835e-06
8.32515e-05
-6.1428e-06
8.294e-05
-4.44105e-06
8.27631e-05
-2.71613e-06
8.27221e-05
-9.70694e-07
7.94583e-07
8.28187e-05
8.66823e-05
-1.31215e-05
-8.77621e-05
8.57231e-05
-1.16998e-05
8.48876e-05
-1.02436e-05
8.41781e-05
-8.75533e-06
8.35972e-05
-7.23745e-06
8.3147e-05
-5.69255e-06
8.28293e-05
-4.12334e-06
8.26458e-05
-2.53262e-06
8.2598e-05
-9.22859e-07
7.05284e-07
8.26873e-05
8.661e-05
-1.20381e-05
-8.76933e-05
8.5647e-05
-1.07368e-05
8.48071e-05
-9.40376e-06
8.4093e-05
-8.04124e-06
8.35071e-05
-6.65153e-06
8.30515e-05
-5.23693e-06
8.27281e-05
-3.79993e-06
8.25385e-05
-2.3431e-06
8.24844e-05
-8.68696e-07
6.22621e-07
8.2567e-05
8.65442e-05
-1.09517e-05
-8.76307e-05
8.55777e-05
-9.77028e-06
8.4734e-05
-8.56004e-06
8.40157e-05
-7.32296e-06
8.34252e-05
-6.06105e-06
8.29647e-05
-4.77643e-06
8.26361e-05
-3.47133e-06
8.24411e-05
-2.14808e-06
8.23812e-05
-8.08747e-07
5.46026e-07
8.24578e-05
8.64849e-05
-9.86247e-06
-8.75741e-05
8.55153e-05
-8.80067e-06
8.46682e-05
-7.7129e-06
8.39461e-05
-6.6009e-06
8.33515e-05
-5.46649e-06
8.28866e-05
-4.31152e-06
8.25533e-05
-3.13801e-06
8.23533e-05
-1.94807e-06
8.22881e-05
-7.43537e-07
4.7496e-07
8.23592e-05
8.64319e-05
-8.77092e-06
-8.75235e-05
8.54597e-05
-7.82838e-06
8.46095e-05
-6.86275e-06
8.38841e-05
-5.87551e-06
8.32859e-05
-4.86826e-06
8.2817e-05
-3.84265e-06
8.24795e-05
-2.80046e-06
8.22749e-05
-1.74354e-06
8.2205e-05
-6.7357e-07
4.08892e-07
8.2271e-05
8.63852e-05
-7.67739e-06
-8.74787e-05
8.54106e-05
-6.85381e-06
8.45579e-05
-6.00999e-06
8.38296e-05
-5.1472e-06
8.32281e-05
-4.26681e-06
8.27557e-05
-3.37027e-06
8.24144e-05
-2.45911e-06
8.22058e-05
-1.53498e-06
8.21316e-05
-5.99334e-07
3.47312e-07
8.21932e-05
8.63447e-05
-6.58228e-06
-8.74398e-05
8.53682e-05
-5.87735e-06
8.45132e-05
-5.15502e-06
8.37824e-05
-4.41637e-06
8.31781e-05
-3.66255e-06
8.27027e-05
-2.89479e-06
8.2358e-05
-2.11442e-06
8.21458e-05
-1.32284e-06
8.20678e-05
-5.21307e-07
2.89715e-07
8.21254e-05
8.63101e-05
-5.48599e-06
-8.74064e-05
8.53322e-05
-4.89939e-06
8.44754e-05
-4.29825e-06
8.37425e-05
-3.68342e-06
8.31358e-05
-3.05588e-06
8.26576e-05
-2.41664e-06
8.231e-05
-1.76681e-06
8.20947e-05
-1.10757e-06
8.20134e-05
-4.39961e-07
2.35609e-07
8.20675e-05
8.62816e-05
-4.38891e-06
-8.73787e-05
8.53025e-05
-3.92032e-06
8.44443e-05
-3.44004e-06
8.37097e-05
-2.94873e-06
8.3101e-05
-2.44719e-06
8.26205e-05
-1.93622e-06
8.22704e-05
-1.41671e-06
8.20525e-05
-8.89611e-07
8.19683e-05
-3.55762e-07
1.84502e-07
8.20194e-05
8.6259e-05
-3.29144e-06
-8.73565e-05
8.52792e-05
-2.94052e-06
8.44199e-05
-2.58077e-06
8.36839e-05
-2.21269e-06
8.30736e-05
-1.83687e-06
8.25913e-05
-1.45393e-06
8.22391e-05
-1.06454e-06
8.20189e-05
-6.69413e-07
8.19323e-05
-2.6918e-07
1.35897e-07
8.19809e-05
8.62423e-05
-2.19392e-06
-8.73398e-05
8.52621e-05
-1.96032e-06
8.44021e-05
-1.72078e-06
8.36651e-05
-1.47564e-06
8.30535e-05
-1.2253e-06
8.25698e-05
-9.70181e-07
8.22159e-05
-7.10731e-07
8.1994e-05
-4.47425e-07
8.19055e-05
-1.80689e-07
8.92927e-08
8.19521e-05
8.62314e-05
-1.09668e-06
-8.73286e-05
8.52511e-05
-9.80059e-07
8.43908e-05
-8.6042e-07
8.36531e-05
-7.37955e-07
8.30407e-05
-6.12874e-07
8.25559e-05
-4.85388e-07
8.22009e-05
-3.55725e-07
8.19776e-05
-2.2412e-07
8.18877e-05
-9.07879e-08
4.41727e-08
8.19328e-05
8.62263e-05
-8.7323e-05
8.52462e-05
8.43858e-05
8.36479e-05
8.3035e-05
8.25496e-05
8.21939e-05
8.19697e-05
8.1879e-05
8.19231e-05
8.67588e-05
5.11146e-06
8.52447e-05
1.19953e-06
8.45247e-05
1.93711e-06
8.48066e-05
4.18794e-06
8.48888e-05
5.06899e-06
8.47687e-05
5.64502e-06
8.46384e-05
6.45311e-06
8.45183e-05
7.3544e-06
8.43899e-05
8.27811e-06
8.42554e-05
9.25349e-06
8.41254e-05
1.03045e-05
8.40101e-05
1.14404e-05
8.39201e-05
1.26695e-05
8.38683e-05
1.40018e-05
8.38704e-05
1.54463e-05
8.39457e-05
1.70103e-05
8.41179e-05
1.86958e-05
8.44201e-05
2.04922e-05
8.49203e-05
2.23503e-05
2.41015e-05
8.63109e-05
2.78774e-06
8.55074e-05
2.00304e-06
8.48918e-05
2.5527e-06
8.49945e-05
4.08524e-06
8.50389e-05
5.02458e-06
8.49506e-05
5.7333e-06
8.48535e-05
6.55025e-06
8.47683e-05
7.43954e-06
8.46839e-05
8.36257e-06
8.46022e-05
9.33515e-06
8.45324e-05
1.03743e-05
8.4484e-05
1.14887e-05
8.44677e-05
1.26858e-05
8.44966e-05
1.39729e-05
8.45864e-05
1.53565e-05
8.47566e-05
1.68401e-05
8.50311e-05
1.84213e-05
8.54401e-05
2.00833e-05
8.60202e-05
2.17702e-05
2.33375e-05
8.51475e-05
1.67784e-06
8.51069e-05
2.04367e-06
8.48718e-05
2.78784e-06
8.49454e-05
4.01163e-06
8.50144e-05
4.95562e-06
8.49984e-05
5.74925e-06
8.49621e-05
6.58656e-06
8.49289e-05
7.47273e-06
8.48982e-05
8.39326e-06
8.48743e-05
9.35902e-06
8.48661e-05
1.03826e-05
8.48831e-05
1.14717e-05
8.49362e-05
1.26326e-05
8.50383e-05
1.38709e-05
8.52044e-05
1.51904e-05
8.54525e-05
1.65919e-05
8.58037e-05
1.80702e-05
8.62806e-05
1.96064e-05
8.6904e-05
2.11468e-05
2.25539e-05
8.45959e-05
1.14625e-06
8.46905e-05
1.94907e-06
8.46706e-05
2.80777e-06
8.47892e-05
3.89296e-06
8.49018e-05
4.843e-06
8.49562e-05
5.69484e-06
8.49867e-05
6.55608e-06
8.50132e-05
7.44628e-06
8.5041e-05
8.36546e-06
8.50768e-05
9.32317e-06
8.51298e-05
1.03296e-05
8.52099e-05
1.13917e-05
8.53278e-05
1.25147e-05
8.5496e-05
1.37027e-05
8.57285e-05
1.49578e-05
8.60416e-05
1.62789e-05
8.64528e-05
1.7659e-05
8.69802e-05
1.90789e-05
8.76386e-05
2.04884e-05
2.17583e-05
8.43156e-05
9.13573e-07
8.44167e-05
1.848e-06
8.44862e-05
2.7383e-06
8.46268e-05
3.75232e-06
8.47676e-05
4.70224e-06
8.48745e-05
5.58792e-06
8.49622e-05
6.46834e-06
8.50444e-05
7.36414e-06
8.5128e-05
8.28182e-06
8.52207e-05
9.23046e-06
8.53315e-05
1.02188e-05
8.54702e-05
1.1253e-05
8.56472e-05
1.23377e-05
8.58742e-05
1.34757e-05
8.61641e-05
1.46679e-05
8.65313e-05
1.59118e-05
8.69905e-05
1.71997e-05
8.75564e-05
1.85131e-05
8.82395e-05
1.98052e-05
2.09563e-05
8.41909e-05
8.20965e-07
8.42687e-05
1.77026e-06
8.43604e-05
2.6466e-06
8.45008e-05
3.61193e-06
8.46518e-05
4.55118e-06
8.47901e-05
5.44963e-06
8.49191e-05
6.33936e-06
8.50462e-05
7.237e-06
8.51776e-05
8.15045e-06
8.53202e-05
9.08787e-06
8.54823e-05
1.00567e-05
8.56728e-05
1.10624e-05
8.59018e-05
1.21088e-05
8.61797e-05
1.31978e-05
8.65183e-05
1.43293e-05
8.69299e-05
1.55002e-05
8.74272e-05
1.67025e-05
8.80218e-05
1.79185e-05
8.87217e-05
1.91053e-05
2.01511e-05
8.41479e-05
7.85736e-07
8.42033e-05
1.71486e-06
8.4291e-05
2.55892e-06
8.44205e-05
3.48236e-06
8.457e-05
4.40172e-06
8.4723e-05
5.29663e-06
8.48777e-05
6.1846e-06
8.50373e-05
7.0774e-06
8.5206e-05
7.98184e-06
8.53892e-05
8.90464e-06
8.5594e-05
9.85186e-06
8.58284e-05
1.0828e-05
8.61011e-05
1.18361e-05
8.64217e-05
1.28772e-05
8.68003e-05
1.39506e-05
8.72476e-05
1.50529e-05
8.77742e-05
1.61759e-05
8.83895e-05
1.73032e-05
8.90998e-05
1.83951e-05
1.9347e-05
8.41423e-05
7.70183e-07
8.41847e-05
1.67243e-06
8.4263e-05
2.4807e-06
8.43796e-05
3.36568e-06
8.45221e-05
4.25922e-06
8.46795e-05
5.13925e-06
8.48484e-05
6.0157e-06
8.50294e-05
6.89641e-06
8.52249e-05
7.78631e-06
8.54392e-05
8.69041e-06
8.56777e-05
9.61333e-06
8.59472e-05
1.05585e-05
8.62553e-05
1.1528e-05
8.661e-05
1.25224e-05
8.70203e-05
1.35404e-05
8.7495e-05
1.45781e-05
8.80431e-05
1.56279e-05
8.86722e-05
1.66741e-05
8.93871e-05
1.76802e-05
1.85483e-05
8.41522e-05
7.58802e-07
8.41897e-05
1.63488e-06
8.42606e-05
2.40986e-06
8.43667e-05
3.25955e-06
8.45015e-05
4.12439e-06
8.46583e-05
4.98248e-06
8.48339e-05
5.8401e-06
8.50279e-05
6.7024e-06
8.52417e-05
7.57253e-06
8.54782e-05
8.45387e-06
8.57419e-05
9.34966e-06
8.60381e-05
1.02623e-05
8.63732e-05
1.11929e-05
8.67541e-05
1.21416e-05
8.71881e-05
1.31064e-05
8.76827e-05
1.40835e-05
8.82453e-05
1.50653e-05
8.88819e-05
1.60374e-05
8.95962e-05
1.69659e-05
1.77592e-05
8.41675e-05
7.46053e-07
8.42049e-05
1.5975e-06
8.42719e-05
2.34292e-06
8.43711e-05
3.16034e-06
8.44998e-05
3.99564e-06
8.46544e-05
4.82791e-06
8.48326e-05
5.66184e-06
8.50341e-05
6.50098e-06
8.52595e-05
7.34706e-06
8.55113e-05
8.20215e-06
8.57926e-05
9.06828e-06
8.61081e-05
9.94685e-06
8.64627e-05
1.08383e-05
8.68622e-05
1.1742e-05
8.73127e-05
1.26559e-05
8.78204e-05
1.35758e-05
8.83912e-05
1.44946e-05
8.90299e-05
1.53987e-05
8.97389e-05
1.62568e-05
1.69833e-05
8.41841e-05
7.30564e-07
8.42234e-05
1.55817e-06
8.42892e-05
2.27714e-06
8.43848e-05
3.06478e-06
8.45096e-05
3.87077e-06
8.46621e-05
4.6754e-06
8.48412e-05
5.48279e-06
8.50466e-05
6.29557e-06
8.52791e-05
7.11451e-06
8.55406e-05
7.94068e-06
8.58337e-05
8.77517e-06
8.6162e-05
9.61857e-06
8.65297e-05
1.04707e-05
8.69414e-05
1.13303e-05
8.74021e-05
1.21952e-05
8.79168e-05
1.3061e-05
8.84902e-05
1.39212e-05
8.91261e-05
1.47628e-05
8.9826e-05
1.55569e-05
1.62235e-05
8.42002e-05
7.12502e-07
8.42421e-05
1.51628e-06
8.43083e-05
2.21085e-06
8.44026e-05
2.97054e-06
8.45255e-05
3.74785e-06
8.46767e-05
4.52423e-06
8.48558e-05
5.30362e-06
8.50633e-05
6.08814e-06
8.52998e-05
6.87795e-06
8.55671e-05
7.67343e-06
8.58673e-05
8.47497e-06
8.62034e-05
9.2825e-06
8.65787e-05
1.00953e-05
8.69972e-05
1.09119e-05
8.74627e-05
1.17296e-05
8.79793e-05
1.25444e-05
8.85508e-05
1.33497e-05
8.91798e-05
1.41338e-05
8.98671e-05
1.48695e-05
1.54824e-05
8.42154e-05
6.92458e-07
8.42596e-05
1.472e-06
8.43272e-05
2.14329e-06
8.44215e-05
2.87625e-06
8.45438e-05
3.62556e-06
8.46943e-05
4.37369e-06
8.48734e-05
5.12449e-06
8.50818e-05
5.8798e-06
8.53203e-05
6.63941e-06
8.55905e-05
7.40323e-06
8.58944e-05
8.17112e-06
8.62343e-05
8.94258e-06
8.66131e-05
9.71651e-06
8.70339e-05
1.04911e-05
8.74999e-05
1.12636e-05
8.80142e-05
1.203e-05
8.85797e-05
1.27842e-05
8.91985e-05
1.3515e-05
8.98706e-05
1.41975e-05
1.4762e-05
8.42296e-05
6.71023e-07
8.42758e-05
1.42578e-06
8.43448e-05
2.07432e-06
8.44397e-05
2.78127e-06
8.45621e-05
3.50317e-06
8.47125e-05
4.22331e-06
8.48916e-05
4.94544e-06
8.51001e-05
5.67124e-06
8.53393e-05
6.40025e-06
8.56105e-05
7.13205e-06
8.59154e-05
7.86617e-06
8.62562e-05
8.60179e-06
8.66352e-05
9.33754e-06
8.70548e-05
1.00714e-05
8.75178e-05
1.08007e-05
8.80265e-05
1.15213e-05
8.85831e-05
1.22276e-05
8.91889e-05
1.29092e-05
8.98436e-05
1.35428e-05
1.40638e-05
8.42429e-05
6.48676e-07
8.42906e-05
1.37812e-06
8.43608e-05
2.00409e-06
8.44566e-05
2.68547e-06
8.45794e-05
3.38041e-06
8.47298e-05
4.07291e-06
8.49086e-05
4.7666e-06
8.51169e-05
5.46298e-06
8.53557e-05
6.16143e-06
8.56264e-05
6.86134e-06
8.59306e-05
7.562e-06
8.627e-05
8.26236e-06
8.66467e-05
8.9609e-06
8.70626e-05
9.65552e-06
8.75198e-05
1.03434e-05
8.80203e-05
1.10209e-05
8.85656e-05
1.16823e-05
8.91565e-05
1.23182e-05
8.97923e-05
1.2907e-05
1.33886e-05
8.42555e-05
6.2577e-07
8.43041e-05
1.3295e-06
8.43753e-05
1.93292e-06