/*--------------------------------*- C++ -*----------------------------------*\
  =========                 |
  \\      /  F ield         | OpenFOAM: The Open Source CFD Toolbox
   \\    /   O peration     | Website:  https://openfoam.org
    \\  /    A nd           | Version:  6
     \\/     M anipulation  |
\*---------------------------------------------------------------------------*/
FoamFile
{
    version     2.0;
    format      ascii;
    class       surfaceScalarField;
    location    "0.5";
    object      phi;
}
// * * * * * * * * * * * * * * * * * * * * * * * * * * * * * * * * * * * * * //

dimensions      [0 3 -1 0 0 0 0];

internalField   nonuniform List<scalar> 
11030
(
0.000114063
-7.98313e-08
0.000114186
-1.23671e-07
0.000114201
-1.49604e-08
0.0001141
1.01542e-07
0.000113943
1.56463e-07
0.000113731
2.12579e-07
0.000113442
2.888e-07
0.000113066
3.75687e-07
0.000112597
4.69488e-07
0.000112024
5.72248e-07
0.000111338
6.8622e-07
0.000110525
8.13116e-07
0.00010957
9.54852e-07
0.000108457
1.11376e-06
0.000107164
1.29243e-06
0.000105671
1.49342e-06
0.000103952
1.7185e-06
0.000101985
1.96709e-06
9.97519e-05
2.23321e-06
2.49602e-06
9.72559e-05
0.000114201
-2.98558e-07
0.000114193
-1.15031e-07
0.000114088
9.02969e-08
0.000113949
2.39839e-07
0.000113758
3.47936e-07
0.000113495
4.75302e-07
0.000113153
6.30644e-07
0.000112726
8.03366e-07
0.000112203
9.9153e-07
0.000111577
1.19876e-06
0.000110835
1.42866e-06
0.000109963
1.68457e-06
0.000108948
1.97037e-06
0.000107771
2.29071e-06
0.000106412
2.65067e-06
0.000104851
3.05522e-06
0.000103061
3.50778e-06
0.000101021
4.00706e-06
9.87135e-05
4.54103e-06
5.07252e-06
9.6137e-05
0.000114084
-4.08767e-07
0.000114079
-1.09673e-07
0.000113962
2.07754e-07
0.000113777
4.24864e-07
0.000113534
5.90636e-07
0.000113221
7.8818e-07
0.000112828
1.02406e-06
0.000112346
1.28449e-06
0.00011177
1.56841e-06
0.000111087
1.88118e-06
0.000110288
2.22789e-06
0.000109359
2.61343e-06
0.000108286
3.04357e-06
0.000107051
3.52515e-06
0.000105636
4.06565e-06
0.000104019
4.67232e-06
0.000102177
5.3502e-06
0.000100086
6.09747e-06
9.77308e-05
6.89676e-06
7.69749e-06
9.51058e-05
0.000114013
-4.56497e-07
0.000113956
-5.18728e-08
0.000113798
3.65571e-07
0.000113569
6.53836e-07
0.000113278
8.81648e-07
0.000112915
1.15151e-06
0.000112469
1.46969e-06
0.000111934
1.81941e-06
0.000111302
2.20011e-06
0.000110565
2.6188e-06
0.000109711
3.082e-06
0.000108728
3.59605e-06
0.000107603
4.16848e-06
0.00010632
4.80811e-06
0.000104861
5.5246e-06
0.000103206
6.32731e-06
0.000101334
7.22276e-06
9.92223e-05
8.20868e-06
9.68562e-05
9.26288e-06
1.03239e-05
9.42298e-05
0.00011394
-4.38064e-07
0.00011382
6.74365e-08
0.000113613
5.72735e-07
0.000113337
9.30306e-07
0.000112996
1.22237e-06
0.000112581
1.56672e-06
0.000112082
1.96887e-06
0.000111492
2.40897e-06
0.000110805
2.88677e-06
0.000110014
3.41072e-06
0.000109107
3.98862e-06
0.000108075
4.62807e-06
0.000106905
5.33811e-06
0.000105584
6.12933e-06
0.000104095
7.01319e-06
0.000102422
8.00082e-06
0.000100545
9.09996e-06
9.84456e-05
1.03079e-05
9.61107e-05
1.15978e-05
1.29002e-05
9.35344e-05
0.000113857
-3.44161e-07
0.000113671
2.53449e-07
0.000113413
8.30615e-07
0.000113088
1.25555e-06
0.000112696
1.615e-06
0.000112226
2.03656e-06
0.00011167
2.52435e-06
0.000111024
3.05547e-06
0.000110281
3.62981e-06
0.000109434
4.25707e-06
0.000108477
4.94614e-06
0.000107399
5.70569e-06
0.000106191
6.54601e-06
0.000104842
7.47904e-06
0.000103337
8.51764e-06
0.000101664
9.67418e-06
9.98064e-05
1.09573e-05
9.77506e-05
1.23636e-05
9.54858e-05
1.38627e-05
1.53795e-05
9.30065e-05
0.000113757
-1.56377e-07
0.000113502
5.07874e-07
0.000113203
1.13001e-06
0.000112831
1.62737e-06
0.000112383
2.06334e-06
0.000111853
2.5661e-06
0.000111236
3.14098e-06
0.000110529
3.76312e-06
0.000109726
4.43229e-06
0.000108824
5.15935e-06
0.000107816
5.95417e-06
0.000106695
6.82632e-06
0.000105454
7.78699e-06
0.000104084
8.84902e-06
0.000102576
1.00261e-05
0.000100919
1.13312e-05
9.91027e-05
1.27735e-05
9.7117e-05
1.43493e-05
9.49545e-05
1.60252e-05
1.77252e-05
9.26088e-05
0.000113613
1.68355e-07
0.000113298
8.22797e-07
0.000112987
1.44056e-06
0.000112573
2.0415e-06
0.00011206
2.57636e-06
0.000111462
3.16403e-06
0.000110777
3.82588e-06
0.000110003
4.53785e-06
0.000109136
5.29865e-06
0.000108175
6.12021e-06
0.000107116
7.01349e-06
0.000105954
7.98874e-06
0.000104683
9.05761e-06
0.000103299
1.02333e-05
0.000101795
1.15295e-05
0.000100167
1.29595e-05
9.84085e-05
1.45322e-05
9.65139e-05
1.62439e-05
9.44782e-05
1.80608e-05
1.99146e-05
9.22889e-05
0.000113328
7.7231e-07
0.000113041
1.10979e-06
0.00011279
1.69189e-06
0.000112321
2.51022e-06
0.000111722
3.17526e-06
0.000111044
3.84209e-06
0.000110283
4.58742e-06
0.000109434
5.38677e-06
0.000108498
6.23448e-06
0.000107474
7.14378e-06
0.000106361
8.12706e-06
0.000105155
9.19487e-06
0.000103854
1.03587e-05
0.000102455
1.16314e-05
0.000100959
1.30259e-05
9.93644e-05
1.45541e-05
9.76718e-05
1.62247e-05
9.58809e-05
1.80348e-05
9.39903e-05
1.99514e-05
2.19099e-05
9.19951e-05
0.000112826
1.88957e-06
0.000112877
1.05893e-06
0.000112665
1.9036e-06
0.000112068
3.10751e-06
0.000111361
3.88247e-06
0.000110594
4.60914e-06
0.000109748
5.43282e-06
0.000108821
6.31451e-06
0.000107812
7.24263e-06
0.000106724
8.23233e-06
0.000105554
9.29713e-06
0.000104301
1.04474e-05
0.000102966
1.16939e-05
0.00010155
1.30478e-05
0.000100055
1.45203e-05
9.84888e-05
1.61206e-05
9.68598e-05
1.78538e-05
9.51778e-05
1.97168e-05
9.34343e-05
2.16949e-05
9.16225e-05
2.37217e-05
8.69965e-05
1.02593e-05
7.65973e-05
1.03992e-05
6.60452e-05
1.05521e-05
5.5337e-05
1.07082e-05
4.44901e-05
1.08469e-05
3.35809e-05
1.09092e-05
2.28251e-05
1.07559e-05
1.27332e-05
1.00918e-05
4.3688e-06
8.36444e-06
4.3688e-06
8.59739e-05
2.04224e-05
7.56635e-05
2.07096e-05
6.52015e-05
2.10141e-05
5.45878e-05
2.13219e-05
4.38438e-05
2.15909e-05
3.30509e-05
2.17021e-05
2.2427e-05
2.13797e-05
1.24805e-05
2.00384e-05
4.30878e-06
1.65361e-05
8.67758e-06
8.50426e-05
3.04857e-05
7.4825e-05
3.09272e-05
6.44547e-05
3.13844e-05
5.39339e-05
3.18427e-05
4.32865e-05
3.22382e-05
3.25979e-05
3.23908e-05
2.20906e-05
3.1887e-05
1.22762e-05
2.98527e-05
4.22682e-06
2.45855e-05
1.29044e-05
8.42544e-05
4.04611e-05
7.41198e-05
4.10618e-05
6.38316e-05
4.16726e-05
5.33929e-05
4.22814e-05
4.28285e-05
4.28025e-05
3.22265e-05
4.29929e-05
2.18135e-05
4.23e-05
1.2104e-05
3.95621e-05
4.15894e-06
3.25306e-05
1.70633e-05
8.36308e-05
5.03646e-05
7.35631e-05
5.11295e-05
6.33414e-05
5.18943e-05
5.29679e-05
5.2655e-05
4.24671e-05
5.33033e-05
3.19294e-05
5.35306e-05
2.15862e-05
5.26432e-05
1.19575e-05
4.91909e-05
4.09889e-06
4.03892e-05
2.11622e-05
8.31582e-05
6.0213e-05
7.314e-05
6.11477e-05
6.29672e-05
6.20671e-05
5.26393e-05
6.29829e-05
4.21804e-05
6.37622e-05
3.16837e-05
6.40274e-05
2.13875e-05
6.29394e-05
1.18204e-05
5.8758e-05
4.03818e-06
4.81714e-05
2.52004e-05
8.27969e-05
7.00248e-05
7.28099e-05
7.11347e-05
6.26676e-05
7.22094e-05
5.23647e-05
7.32857e-05
4.19254e-05
7.42015e-05
3.14481e-05
7.45047e-05
2.11814e-05
7.3206e-05
1.16668e-05
6.82726e-05
3.96378e-06
5.58744e-05
2.91642e-05
8.24851e-05
7.98286e-05
7.25065e-05
8.11133e-05
6.2375e-05
8.2341e-05
5.20754e-05
8.35853e-05
4.16353e-05
8.46416e-05
3.11618e-05
8.49782e-05
2.09182e-05
8.34496e-05
1.14622e-05
7.77286e-05
3.85863e-06
6.3478e-05
3.30228e-05
8.21207e-05
8.97029e-05
7.21204e-05
9.11136e-05
6.19769e-05
9.24845e-05
5.16617e-05
9.39005e-05
4.12114e-05
9.50919e-05
3.0743e-05
9.54467e-05
2.05357e-05
9.36568e-05
1.11634e-05
8.7101e-05
3.69855e-06
7.09429e-05
3.67214e-05
8.14624e-05
9.9863e-05
7.14473e-05
0.000101129
6.12745e-05
0.000102657
5.09491e-05
0.000104226
4.05127e-05
0.000105528
3.00852e-05
0.000105874
1.99564e-05
0.000103786
1.07088e-05
9.63486e-05
3.43379e-06
7.82178e-05
4.01552e-05
3.09548e-05
0.000105227
-3.63187e-05
2.56232e-05
0.00010646
2.03829e-05
0.000107898
1.52844e-05
0.000109324
1.04758e-05
0.000110337
6.21079e-06
0.000110139
2.83467e-06
0.000107162
6.93027e-07
9.84903e-05
-9.25323e-08
7.90034e-05
4.00626e-05
2.50594e-05
0.000110055
-2.98871e-05
2.02336e-05
0.000111286
1.55101e-05
0.000112621
1.09987e-05
0.000113836
6.86392e-06
0.000114472
3.35718e-06
0.000113646
7.94089e-07
0.000109725
-5.38968e-07
9.98233e-05
-6.05577e-07
7.907e-05
3.9457e-05
1.92083e-05
0.000114375
-2.35286e-05
1.4902e-05
0.000115592
1.07311e-05
0.000116792
6.83126e-06
0.000117736
3.3876e-06
0.000117915
6.50701e-07
0.000116383
-1.09306e-06
0.000111469
-1.62193e-06
0.000100352
-1.00294e-06
7.8451e-05
3.84541e-05
1.34558e-05
0.000118191
-1.72719e-05
9.68731e-06
0.000119361
6.09212e-06
0.000120387
2.82526e-06
0.000121003
8.69816e-08
0.000120654
-1.87571e-06
0.000118345
-2.80863e-06
0.000112401
-2.56125e-06
0.000100105
-1.31762e-06
7.72074e-05
3.71365e-05
7.8421e-06
0.000121501
-1.11518e-05
4.62174e-06
0.000122581
1.62044e-06
0.000123388
-9.94391e-07
0.000123617
-3.01482e-06
0.000122674
-4.20377e-06
0.000119534
-4.34537e-06
0.000112543
-3.36571e-06
9.91252e-05
-1.56528e-06
7.5407e-05
3.55712e-05
2.39491e-06
0.000124301
-5.19566e-06
-2.69797e-07
0.000125246
-2.66339e-06
0.000125782
-4.61138e-06
0.000125565
-5.90561e-06
0.000123968
-6.32643e-06
0.000119955
-5.70337e-06
0.00011192
-4.04282e-06
9.74646e-05
-1.75461e-06
7.31188e-05
3.38166e-05
-2.86758e-06
0.00012659
5.79523e-07
-4.96954e-06
0.000127348
-6.7441e-06
0.000127557
-8.01415e-06
0.000126835
-8.57827e-06
0.000124532
-8.24193e-06
0.000119619
-6.88673e-06
0.000110565
-4.60117e-06
9.5179e-05
-1.89382e-06
7.04114e-05
3.19228e-05
-7.93589e-06
0.00012836
6.1655e-06
-9.46693e-06
0.000128879
-1.06117e-05
0.000128701
-1.11947e-05
0.000127418
-1.10281e-05
0.000124366
-9.95006e-06
0.000118541
-7.90041e-06
0.000108515
-5.04932e-06
9.2328e-05
-1.99023e-06
6.73523e-05
2.99325e-05
-1.28062e-05
0.000129606
1.156e-05
-1.3755e-05
0.000129828
-1.42563e-05
0.000129203
-1.41419e-05
0.000127304
-1.32449e-05
0.000123469
-1.14449e-05
0.000116741
-8.74553e-06
0.000105816
-5.39507e-06
8.89775e-05
-2.05159e-06
6.40088e-05
2.7881e-05
-1.74713e-05
1.67704e-05
0.000130307
-1.78108e-05
0.000130167
-1.76427e-05
0.000129035
-1.68145e-05
0.000126476
-1.51904e-05
0.000121845
-1.2701e-05
0.000114251
-9.41616e-06
0.000102531
-5.64993e-06
8.52113e-05
-2.09486e-06
6.04538e-05
2.57861e-05
8.05817e-05
-3.6945e-05
-7.99554e-05
8.14259e-05
-3.07313e-05
8.24606e-05
-2.45632e-05
8.36304e-05
-1.84417e-05
8.48934e-05
-1.24148e-05
8.62016e-05
-6.50382e-06
8.75043e-05
-7.23207e-07
8.87518e-05
4.91798e-06
8.98975e-05
1.04143e-05
1.57798e-05
9.0888e-05
8.1268e-05
-3.73962e-05
-8.08168e-05
8.19137e-05
-3.1377e-05
8.27499e-05
-2.53995e-05
8.37336e-05
-1.94254e-05
8.48265e-05
-1.35077e-05
8.59878e-05
-7.66516e-06
8.71745e-05
-1.90987e-06
8.83439e-05
3.7486e-06
8.94552e-05
9.303e-06
1.47708e-05
9.04643e-05
8.18564e-05
-3.76495e-05
-8.1603e-05
8.23203e-05
-3.18409e-05
8.29712e-05
-2.60504e-05
8.37771e-05
-2.02312e-05
8.47046e-05
-1.44353e-05
8.57195e-05
-8.68004e-06
8.67859e-05
-2.97625e-06
8.78682e-05
2.66628e-06
8.89319e-05
8.23929e-06
1.3761e-05
8.99417e-05
8.23695e-05
-3.77576e-05
-8.22614e-05
8.26747e-05
-3.21461e-05
8.31577e-05
-2.65334e-05
8.37964e-05
-2.08698e-05
8.45645e-05
-1.52034e-05
8.54345e-05
-9.55005e-06
8.63777e-05
-3.91949e-06
8.73654e-05
1.67859e-06
8.8369e-05
7.23567e-06
1.27694e-05
8.93606e-05
8.27994e-05
-3.77499e-05
-8.28071e-05
8.29705e-05
-3.23172e-05
8.33065e-05
-2.68694e-05
8.37942e-05
-2.13575e-05
8.44145e-05
-1.58237e-05
8.51467e-05
-1.02823e-05
8.5969e-05
-4.74176e-06
8.68588e-05
7.88789e-07
8.77934e-05
6.30113e-06
1.1812e-05
8.87507e-05
8.3145e-05
-3.76402e-05
-8.32546e-05
8.32002e-05
-3.23724e-05
8.34089e-05
-2.70781e-05
8.37639e-05
-2.17125e-05
8.4252e-05
-1.63118e-05
8.48583e-05
-1.08886e-05
8.55667e-05
-5.45011e-06
8.63602e-05
-4.72374e-09
8.72213e-05
5.44005e-06
1.09001e-05
8.81332e-05
8.34129e-05
-3.74386e-05
-8.36146e-05
8.3366e-05
-3.23255e-05
8.34641e-05
-2.71762e-05
8.37035e-05
-2.19519e-05
8.40753e-05
-1.66837e-05
8.45689e-05
-1.13822e-05
8.51729e-05
-6.05405e-06
8.58749e-05
-7.06785e-07
8.6662e-05
4.65298e-06
1.00405e-05
8.75217e-05
8.36117e-05
-3.71535e-05
-8.38968e-05
8.3474e-05
-3.21878e-05
8.34754e-05
-2.71776e-05
8.36142e-05
-2.20907e-05
8.38842e-05
-1.69536e-05
8.4278e-05
-1.17761e-05
8.47879e-05
-6.56389e-06
8.54051e-05
-1.32399e-06
8.61203e-05
3.93781e-06
9.23608e-06
8.69246e-05
8.37498e-05
-3.67927e-05
-8.41106e-05
8.35312e-05
-3.19692e-05
8.34476e-05
-2.7094e-05
8.34983e-05
-2.21415e-05
8.36792e-05
-1.71346e-05
8.39853e-05
-1.20821e-05
8.44111e-05
-6.98967e-06
8.49507e-05
-1.86368e-06
8.55978e-05
3.29074e-06
8.48747e-06
8.63464e-05
8.38355e-05
-3.63635e-05
-8.42648e-05
8.35445e-05
-3.16782e-05
8.33856e-05
-2.69351e-05
8.33591e-05
-2.21149e-05
8.34619e-05
-1.72374e-05
8.36906e-05
-1.23108e-05
8.40416e-05
-7.34071e-06
8.45112e-05
-2.33322e-06
8.50949e-05
2.70704e-06
7.79323e-06
8.57891e-05
8.38762e-05
-3.58724e-05
-8.43673e-05
8.35203e-05
-3.13223e-05
8.32947e-05
-2.67096e-05
8.31999e-05
-2.20201e-05
8.32339e-05
-1.72714e-05
8.33944e-05
-1.24713e-05
8.36791e-05
-7.62537e-06
8.40855e-05
-2.7396e-06
8.46108e-05
2.18168e-06
7.15082e-06
8.52532e-05
8.38786e-05
-3.53255e-05
-8.44255e-05
8.34646e-05
-3.09083e-05
8.31796e-05
-2.64246e-05
8.30243e-05
-2.18648e-05
8.29975e-05
-1.72446e-05
8.30976e-05
-1.25714e-05
8.33232e-05
-7.85095e-06
8.36728e-05
-3.08921e-06
8.41448e-05
1.70968e-06
6.55712e-06
8.47385e-05
8.38488e-05
-3.47285e-05
-8.44458e-05
8.33828e-05
-3.04422e-05
8.30448e-05
-2.60865e-05
8.28357e-05
-2.16558e-05
8.27548e-05
-1.71638e-05
8.28012e-05
-1.26178e-05
8.29741e-05
-8.02381e-06
8.32726e-05
-3.38774e-06
8.3696e-05
1.28631e-06
6.00879e-06
8.42443e-05
8.37922e-05
-3.40865e-05
-8.44342e-05
8.32795e-05
-2.99295e-05
8.28941e-05
-2.57011e-05
8.2637e-05
-2.13987e-05
8.25079e-05
-1.70347e-05
8.25064e-05
-1.26163e-05
8.2632e-05
-8.14945e-06
8.28845e-05
-3.64024e-06
8.32636e-05
9.07254e-07
5.50247e-06
8.37699e-05
8.37134e-05
-3.34041e-05
-8.43959e-05
8.3159e-05
-2.9375e-05
8.27311e-05
-2.52732e-05
8.2431e-05
-2.10986e-05
8.22588e-05
-1.68625e-05
8.22143e-05
-1.25718e-05
8.22975e-05
-8.23263e-06
8.25084e-05
-3.85113e-06
8.2847e-05
5.68586e-07
5.03495e-06
8.33146e-05
8.36167e-05
-3.26854e-05
-8.43354e-05
8.30248e-05
-2.87831e-05
8.25588e-05
-2.48073e-05
8.22202e-05
-2.076e-05
8.20092e-05
-1.66515e-05
8.19261e-05
-1.24886e-05
8.19709e-05
-8.27749e-06
8.21441e-05
-4.02428e-06
8.24459e-05
2.66801e-07
4.60324e-06
8.28776e-05
8.35057e-05
-3.19342e-05
-8.42569e-05
8.28801e-05
-2.81575e-05
8.238e-05
-2.43072e-05
8.20067e-05
-2.03867e-05
8.17608e-05
-1.64056e-05
8.16427e-05
-1.23705e-05
8.16528e-05
-8.28764e-06
8.17917e-05
-4.16312e-06
8.20597e-05
-1.23167e-09
4.20459e-06
8.24584e-05
8.33836e-05
-3.11539e-05
-8.41639e-05
8.27278e-05
-2.75017e-05
8.21969e-05
-2.37762e-05
8.17923e-05
-1.99821e-05
8.15148e-05
-1.61281e-05
8.13651e-05
-1.22208e-05
8.13437e-05
-8.26625e-06
8.14513e-05
-4.27065e-06
8.16883e-05
-2.38309e-07
3.83647e-06
8.20565e-05
8.32531e-05
-3.03473e-05
-8.40596e-05
8.25701e-05
-2.68187e-05
8.20115e-05
-2.32176e-05
8.15786e-05
-1.95493e-05
8.12726e-05
-1.58221e-05
8.10942e-05
-1.20423e-05
8.1044e-05
-8.21613e-06
8.11229e-05
-4.34954e-06
8.13316e-05
-4.4693e-07
3.4966e-06
8.16714e-05
8.31166e-05
-2.95173e-05
-8.39466e-05
8.24092e-05
-2.61113e-05
8.18255e-05
-2.26339e-05
8.13671e-05
-1.90909e-05
8.10351e-05
-1.54902e-05
8.08305e-05
-1.18377e-05
8.07542e-05
-8.13975e-06
8.08068e-05
-4.40216e-06
8.09892e-05
-6.29341e-07
3.18287e-06
8.13029e-05
8.29761e-05
-2.86661e-05
-8.38274e-05
8.22467e-05
-2.53819e-05
8.16403e-05
-2.20275e-05
8.11588e-05
-1.86094e-05
8.08032e-05
-1.51346e-05
8.05748e-05
-1.16093e-05
8.04744e-05
-8.03934e-06
8.05029e-05
-4.43064e-06
8.06611e-05
-7.87564e-07
2.8934e-06
8.09506e-05
8.28335e-05
-2.77958e-05
-8.37038e-05
8.20842e-05
-2.46325e-05
8.14573e-05
-2.14006e-05
8.09547e-05
-1.81068e-05
8.05777e-05
-1.47576e-05
8.03274e-05
-1.1359e-05
8.02049e-05
-7.91687e-06
8.02112e-05
-4.43689e-06
8.03471e-05
-9.23431e-07
2.62643e-06
8.0614e-05
8.26903e-05
-2.69083e-05
-8.35777e-05
8.19229e-05
-2.38652e-05
8.12774e-05
-2.07552e-05
8.07557e-05
-1.7585e-05
8.0359e-05
-1.4361e-05
8.00888e-05
-1.10888e-05
7.99461e-05
-7.77414e-06
7.99318e-05
-4.42265e-06
8.0047e-05
-1.03861e-06
2.38038e-06
8.02931e-05
8.25476e-05
-2.60053e-05
-8.34506e-05
8.17639e-05
-2.30815e-05
8.11016e-05
-2.00928e-05
8.05623e-05
-1.70457e-05
8.01478e-05
-1.39464e-05
7.98592e-05
-1.08002e-05
7.96978e-05
-7.61277e-06
7.96647e-05
-4.38949e-06
7.97607e-05
-1.13462e-06
2.15377e-06
7.99873e-05
8.24066e-05
-2.50882e-05
-8.33237e-05
8.16082e-05
-2.22831e-05
8.09304e-05
-1.9415e-05
8.03752e-05
-1.64906e-05
7.99443e-05
-1.35154e-05
7.96389e-05
-1.04949e-05
7.94603e-05
-7.43422e-06
7.94097e-05
-4.33884e-06
7.94879e-05
-1.21285e-06
1.94524e-06
7.96964e-05
8.22682e-05
-2.41585e-05
-8.3198e-05
8.14564e-05
-2.14712e-05
8.07646e-05
-1.87232e-05
8.01948e-05
-1.59208e-05
7.97488e-05
-1.30694e-05
7.9428e-05
-1.0174e-05
7.92336e-05
-7.23982e-06
7.91667e-05
-4.27201e-06
7.92285e-05
-1.27459e-06
1.75355e-06
7.94202e-05
8.21332e-05
-2.32171e-05
-8.30745e-05
8.13091e-05
-2.06471e-05
8.06045e-05
-1.80187e-05
8.00215e-05
-1.53378e-05
7.95616e-05
-1.26096e-05
7.92265e-05
-9.83892e-06
7.90175e-05
-7.03081e-06
7.89357e-05
-4.1902e-06
7.89822e-05
-1.32103e-06
1.57752e-06
7.91582e-05
8.20021e-05
-2.22653e-05
-8.29539e-05
8.11669e-05
-1.98119e-05
8.04507e-05
-1.73024e-05
7.98554e-05
-1.47425e-05
7.93829e-05
-1.21371e-05
7.90347e-05
-9.49073e-06
7.88122e-05
-6.80829e-06
7.87165e-05
-4.09453e-06
7.87487e-05
-1.35326e-06
1.41606e-06
7.89102e-05
8.18755e-05
-2.1304e-05
-8.28368e-05
8.10302e-05
-1.89666e-05
8.03032e-05
-1.65755e-05
7.96968e-05
-1.41361e-05
7.92126e-05
-1.16529e-05
7.88524e-05
-9.13045e-06
7.86174e-05
-6.5733e-06
7.85089e-05
-3.98602e-06
7.85279e-05
-1.37229e-06
1.26818e-06
7.86758e-05
8.17537e-05
-2.03341e-05
-8.27237e-05
8.08992e-05
-1.81121e-05
8.01625e-05
-1.58388e-05
7.95458e-05
-1.35194e-05
7.9051e-05
-1.1158e-05
7.86796e-05
-8.75905e-06
7.8433e-05
-6.32679e-06
7.83126e-05
-3.86562e-06
7.83194e-05
-1.37908e-06
1.13291e-06
7.84547e-05
8.16372e-05
-1.93563e-05
-8.2615e-05
8.07743e-05
-1.72492e-05
8.00287e-05
-1.50932e-05
7.94026e-05
-1.28933e-05
7.88979e-05
-1.06533e-05
7.85162e-05
-8.37739e-06
7.82591e-05
-6.06963e-06
7.81276e-05
-3.7342e-06
7.81231e-05
-1.37451e-06
1.00937e-06
7.82466e-05
8.15261e-05
-1.83713e-05
-8.25111e-05
8.06555e-05
-1.63786e-05
7.99018e-05
-1.43395e-05
7.92671e-05
-1.22586e-05
7.87533e-05
-1.01396e-05
7.83622e-05
-7.98628e-06
7.80952e-05
-5.80264e-06
7.79536e-05
-3.5926e-06
7.79385e-05
-1.3594e-06
8.96717e-07
7.80512e-05
8.14207e-05
-1.73799e-05
-8.24122e-05
8.05432e-05
-1.5501e-05
7.9782e-05
-1.35783e-05
7.91394e-05
-1.1616e-05
7.86173e-05
-9.61751e-06
7.82175e-05
-7.58646e-06
7.79414e-05
-5.52657e-06
7.77904e-05
-3.44157e-06
7.77656e-05
-1.33454e-06
7.94177e-07
7.78681e-05
8.13212e-05
-1.63825e-05
-8.23185e-05
8.04372e-05
-1.46171e-05
7.96693e-05
-1.28104e-05
7.90195e-05
-1.09662e-05
7.84898e-05
-9.08781e-06
7.80819e-05
-7.17864e-06
7.77975e-05
-5.24214e-06
7.76378e-05
-3.28183e-06
7.76039e-05
-1.30064e-06
7.01003e-07
7.76971e-05
8.12275e-05
-1.53799e-05
-8.22301e-05
8.03378e-05
-1.37274e-05
7.95637e-05
-1.20362e-05
7.89073e-05
-1.03098e-05
7.83706e-05
-8.55113e-06
7.79554e-05
-6.76346e-06
7.76633e-05
-4.95001e-06
7.74955e-05
-3.11406e-06
7.74532e-05
-1.2584e-06
6.16495e-07
7.75377e-05
8.11398e-05
-1.43725e-05
-8.21473e-05
8.02449e-05
-1.28325e-05
7.94652e-05
-1.12564e-05
7.88027e-05
-9.64731e-06
7.82596e-05
-8.00805e-06
7.78377e-05
-6.34153e-06
7.75385e-05
-4.65079e-06
7.73633e-05
-2.9389e-06
7.73134e-05
-1.20846e-06
5.39989e-07
7.73899e-05
8.10582e-05
-1.33607e-05
-8.207e-05
8.01586e-05
-1.19329e-05
7.93737e-05
-1.04715e-05
7.87058e-05
-8.9794e-06
7.81569e-05
-7.45914e-06
7.77288e-05
-5.91342e-06
7.74231e-05
-4.34507e-06
7.72411e-05
-2.75693e-06
7.71841e-05
-1.15143e-06
4.70859e-07
7.72532e-05
8.09827e-05
-1.23451e-05
-8.19983e-05
8.00788e-05
-1.10291e-05
7.92893e-05
-9.68204e-06
7.86165e-05
-8.30651e-06
7.80622e-05
-6.90491e-06
7.76285e-05
-5.47968e-06
7.73168e-05
-4.03341e-06
7.71286e-05
-2.56874e-06
7.70651e-05
-1.0879e-06
4.08506e-07
7.71275e-05
8.09132e-05
-1.13261e-05
-8.19322e-05
8.00056e-05
-1.01215e-05
7.92119e-05
-8.88841e-06
7.85346e-05
-7.62915e-06
7.79755e-05
-6.34586e-06
7.75367e-05
-5.0408e-06
7.72196e-05
-3.71633e-06
7.70257e-05
-2.37485e-06
7.69562e-05
-1.01842e-06
3.52358e-07
7.70123e-05
8.08498e-05
-1.03041e-05
-8.18718e-05
7.99388e-05
-9.21052e-06
7.91415e-05
-8.09109e-06
7.84601e-05
-6.94775e-06
7.78967e-05
-5.78247e-06
7.74532e-05
-4.59728e-06
7.71312e-05
-3.39432e-06
7.69321e-05
-2.17577e-06
7.68572e-05
-9.4351e-07
3.0187e-07
7.69077e-05
8.07924e-05
-9.27946e-06
-8.1817e-05
7.98785e-05
-8.29663e-06
7.90779e-05
-7.29049e-06
7.83929e-05
-6.26275e-06
7.78256e-05
-5.21518e-06
7.73779e-05
-4.14958e-06
7.70514e-05
-3.06786e-06
7.68476e-05
-1.97199e-06
7.67678e-05
-8.6368e-07
2.5652e-07
7.68132e-05
8.0741e-05
-8.25261e-06
-8.17678e-05
7.98245e-05
-7.38018e-06
7.90211e-05
-6.48701e-06
7.83329e-05
-5.57458e-06
7.77621e-05
-4.64442e-06
7.73107e-05
-3.69813e-06
7.69802e-05
-2.7374e-06
7.67722e-05
-1.76399e-06
7.6688e-05
-7.79414e-07
2.15804e-07
7.67287e-05
8.06956e-05
-7.22389e-06
-8.17243e-05
7.9777e-05
-6.46157e-06
7.8971e-05
-5.68106e-06
7.828e-05
-4.88363e-06
7.77062e-05
-4.0706e-06
7.72515e-05
-3.24335e-06
7.69174e-05
-2.40338e-06
7.67056e-05
-1.55221e-06
7.66174e-05
-6.91179e-07
1.79235e-07
7.6654e-05
8.06561e-05
-6.19367e-06
-8.16863e-05
7.97357e-05
-5.54115e-06
7.89276e-05
-4.87301e-06
7.82343e-05
-4.19028e-06
7.76578e-05
-3.4941e-06
7.72001e-05
-2.78566e-06
7.68629e-05
-2.06622e-06
7.66478e-05
-1.33709e-06
7.6556e-05
-5.99428e-07
1.46336e-07
7.65889e-05
8.06225e-05
-5.1623e-06
-8.16538e-05
7.97006e-05
-4.61929e-06
7.88908e-05
-4.06321e-06
7.81954e-05
-3.49491e-06
7.76167e-05
-2.91533e-06
7.71564e-05
-2.32544e-06
7.68165e-05
-1.72632e-06
7.65985e-05
-1.11906e-06
7.65037e-05
-5.04609e-07
1.16643e-07
7.65334e-05
8.05947e-05
-4.13013e-06
-8.16269e-05
7.96717e-05
-3.69632e-06
7.88605e-05
-3.25202e-06
7.81635e-05
-2.79787e-06
7.75828e-05
-2.33463e-06
7.71205e-05
-1.86309e-06
7.67782e-05
-1.3841e-06
7.65577e-05
-8.98528e-07
7.64603e-05
-4.07161e-07
8.96935e-08
7.64872e-05
8.05727e-05
-3.0975e-06
-8.16053e-05
7.9649e-05
-2.7726e-06
7.88367e-05
-2.43977e-06
7.81384e-05
-2.09951e-06
7.75561e-05
-1.75239e-06
7.7092e-05
-1.39898e-06
7.67479e-05
-1.03994e-06
7.65253e-05
-6.75925e-07
7.64256e-05
-3.07522e-07
6.50268e-08
7.64503e-05
8.05565e-05
-2.06473e-06
-8.15892e-05
7.96323e-05
-1.84844e-06
7.88193e-05
-1.62681e-06
7.812e-05
-1.40019e-06
7.75366e-05
-1.16895e-06
7.70711e-05
-9.33493e-07
7.67254e-05
-6.94253e-07
7.65011e-05
-4.51671e-07
7.63997e-05
-2.06138e-07
4.21754e-08
7.64226e-05
8.05459e-05
-1.03214e-06
-8.15785e-05
7.96216e-05
-9.24145e-07
7.88082e-05
-8.13447e-07
7.81082e-05
-7.00228e-07
7.7524e-05
-5.84687e-07
7.70575e-05
-4.67025e-07
7.67107e-05
-3.47458e-07
7.64853e-05
-2.26207e-07
7.63826e-05
-1.03469e-07
2.06644e-08
7.64041e-05
8.05409e-05
-8.1573e-05
7.96167e-05
7.88033e-05
7.8103e-05
7.75183e-05
7.70513e-05
7.67039e-05
7.64777e-05
7.63742e-05
7.63949e-05
7.90292e-05
1.39804e-06
7.87054e-05
1.38278e-06
7.8528e-05
2.08104e-06
7.85268e-05
3.10868e-06
7.8486e-05
3.92327e-06
7.84006e-05
4.69455e-06
7.83053e-05
5.52813e-06
7.82075e-05
6.41222e-06
7.81082e-05
7.34198e-06
7.80117e-05
8.32882e-06
7.79249e-05
9.38392e-06
7.78559e-05
1.05165e-05
7.78142e-05
1.17355e-05
7.78119e-05
1.30502e-05
7.78634e-05
1.44688e-05
7.79868e-05
1.59972e-05
7.82041e-05
1.76364e-05
7.85467e-05
1.93742e-05
7.90795e-05
2.11621e-05
2.28457e-05
7.89392e-05
1.02721e-06
7.87532e-05
1.56876e-06
7.86089e-05
2.22539e-06
7.85935e-05
3.12404e-06
7.85654e-05
3.95133e-06
7.8509e-05
4.75096e-06
7.8447e-05
5.59019e-06
7.83864e-05
6.47279e-06
7.83295e-05
7.39887e-06
7.82812e-05
8.37711e-06
7.82485e-05
9.41666e-06
7.82396e-05
1.05254e-05
7.82644e-05
1.17106e-05
7.83352e-05
1.29794e-05
7.84665e-05
1.43374e-05
7.86765e-05
1.57872e-05
7.89874e-05
1.73255e-05
7.94274e-05
1.89342e-05
8.00317e-05
2.05578e-05
2.20606e-05
7.87547e-05
8.591e-07
7.87163e-05
1.60721e-06
7.86466e-05
2.29511e-06
7.86349e-05
3.13568e-06
7.86241e-05
3.96217e-06
7.85986e-05
4.77641e-06
7.85705e-05
5.61834e-06
7.85464e-05
6.49685e-06
7.85302e-05
7.41511e-06
7.85271e-05
8.38022e-06
7.85441e-05
9.39966e-06
7.85895e-05
1.048e-05
7.86731e-05
1.1627e-05
7.88068e-05
1.28458e-05
7.90046e-05
1.41396e-05
7.92831e-05
1.55087e-05
7.96618e-05
1.69468e-05
8.0162e-05
1.8434e-05
8.08038e-05
1.99161e-05
2.12613e-05
7.8685e-05
7.75371e-07
7.86842e-05
1.60802e-06
7.86605e-05
2.31879e-06
7.86647e-05
3.13141e-06
7.86728e-05
3.95407e-06
7.86754e-05
4.7739e-06
7.8679e-05
5.61473e-06
7.86895e-05
6.48635e-06
7.87112e-05
7.39332e-06
7.87498e-05
8.34165e-06
7.8812e-05
9.33744e-06
7.8906e-05
1.0386e-05
7.90411e-05
1.14918e-05
7.92286e-05
1.26583e-05
7.94814e-05
1.38868e-05
7.98143e-05
1.51758e-05
8.02436e-05
1.65175e-05
8.07863e-05
1.78914e-05
8.14563e-05
1.9246e-05
2.04562e-05
7.86569e-05
7.33079e-07
7.86704e-05
1.59448e-06
7.86735e-05
2.31572e-06
7.8692e-05
3.11285e-06
7.87171e-05
3.92899e-06
7.87437e-05
4.74734e-06
7.87755e-05
5.58287e-06
7.88173e-05
6.44454e-06
7.88736e-05
7.33706e-06
7.89497e-05
8.26552e-06
7.90523e-05
9.23487e-06
7.9189e-05
1.02493e-05
7.93687e-05
1.13121e-05
7.96017e-05
1.24253e-05
7.98995e-05
1.3589e-05
8.02753e-05
1.48001e-05
8.07426e-05
1.60501e-05
8.1315e-05
1.7319e-05
8.20024e-05
1.85586e-05
1.96516e-05
7.86507e-05
7.09571e-07
7.86704e-05
1.57482e-06
7.8689e-05
2.29706e-06
7.87196e-05
3.08229e-06
7.87594e-05
3.88916e-06
7.88062e-05
4.70054e-06
7.88624e-05
5.52671e-06
7.89317e-05
6.37523e-06
7.90184e-05
7.25038e-06
7.91276e-05
8.15634e-06
7.92654e-05
9.09706e-06
7.94389e-05
1.00757e-05
7.96565e-05
1.10946e-05
7.99272e-05
1.21545e-05
8.02615e-05
1.32547e-05
8.06706e-05
1.43911e-05
8.11658e-05
1.55549e-05
8.17579e-05
1.67269e-05
8.24543e-05
1.78622e-05
1.88512e-05
7.86555e-05
6.93494e-07
7.86786e-05
1.55175e-06
7.87072e-05
2.26847e-06
7.87479e-05
3.04158e-06
7.88005e-05
3.83656e-06
7.88642e-05
4.63678e-06
7.8941e-05
5.44994e-06
7.90339e-05
6.28231e-06
7.91468e-05
7.13745e-06
7.92845e-05
8.01869e-06
7.94525e-05
8.92907e-06
7.96573e-05
9.87091e-06
7.99064e-05
1.08455e-05
8.0208e-05
1.1853e-05
8.05711e-05
1.28916e-05
8.10052e-05
1.39569e-05
8.152e-05
1.50401e-05
8.21241e-05
1.61228e-05
8.28229e-05
1.71635e-05
1.80595e-05
7.86652e-05
6.79719e-07
7.86912e-05
1.52572e-06
7.8727e-05
2.23262e-06
7.87764e-05
2.99219e-06
7.884e-05
3.77293e-06
7.89181e-05
4.55874e-06
7.90122e-05
5.35583e-06
7.91251e-05
6.16941e-06
7.92603e-05
7.00227e-06
7.9422e-05
7.85697e-06
7.96153e-05
8.73575e-06
7.98461e-05
9.64014e-06
8.01209e-05
1.05707e-05
8.0447e-05
1.15269e-05
8.08322e-05
1.25063e-05
8.12847e-05
1.35045e-05
8.18123e-05
1.45124e-05
8.24221e-05
1.55131e-05
8.31179e-05
1.64677e-05
1.72806e-05
7.86768e-05
6.66043e-07
7.87058e-05
1.4967e-06
7.87475e-05
2.19092e-06
7.88044e-05
2.93528e-06
7.88776e-05
3.69976e-06
7.89677e-05
4.46863e-06
7.90763e-05
5.2472e-06
7.92059e-05
6.03979e-06
7.93597e-05
6.84854e-06
7.95414e-05
7.67529e-06
7.97555e-05
8.52159e-06
8.00074e-05
9.3883e-06
8.03026e-05
1.02754e-05
8.06477e-05
1.11818e-05
8.10493e-05
1.21048e-05
8.15142e-05
1.30395e-05
8.20491e-05
1.39776e-05
8.26594e-05
1.49028e-05
8.33478e-05
1.57792e-05
1.65179e-05
7.86891e-05
6.51593e-07
7.8721e-05
1.46473e-06
7.87677e-05
2.14424e-06
7.88312e-05
2.87184e-06
7.89126e-05
3.61836e-06
7.90129e-05
4.36834e-06
7.91336e-05
5.12645e-06
7.92771e-05
5.89634e-06
7.9446e-05
6.67955e-06
7.9644e-05
7.47733e-06
7.98749e-05
8.29065e-06
8.01434e-05
9.11981e-06
8.04545e-05
9.96432e-06
8.08137e-05
1.08226e-05
8.12267e-05
1.16918e-05
8.16991e-05
1.25671e-05
8.22365e-05
1.34402e-05
8.28431e-05
1.42961e-05
8.35207e-05
1.51016e-05
1.57738e-05
7.87014e-05
6.36102e-07
7.87361e-05
1.43002e-06
7.8787e-05
2.09328e-06
7.88561e-05
2.80275e-06
7.89446e-05
3.5299e-06
7.90534e-05
4.25949e-06
7.91842e-05
4.99568e-06
7.9339e-05
5.74158e-06
7.95203e-05
6.49824e-06
7.97312e-05
7.2664e-06
7.99753e-05
8.04655e-06
8.02566e-05
8.83855e-06
8.05794e-05
9.64151e-06
8.09484e-05
1.04536e-05
8.13684e-05
1.12718e-05
8.18443e-05
1.20912e-05
8.23803e-05
1.29042e-05
8.29799e-05
1.36966e-05
8.36439e-05
1.44376e-05
1.50504e-05
7.87134e-05
6.19573e-07
7.87506e-05
1.39285e-06
7.88052e-05
2.03866e-06
7.8879e-05
2.72888e-06
7.89734e-05
3.43551e-06
7.90894e-05
4.14355e-06
7.92283e-05
4.85674e-06
7.93921e-05
5.57774e-06
7.95832e-05
6.30717e-06
7.98042e-05
7.04539e-06
8.00583e-05
7.79247e-06
8.03489e-05
8.54793e-06
8.06799e-05
9.31058e-06
8.10551e-05
1.00784e-05
8.14786e-05
1.08482e-05
8.19544e-05
1.16155e-05
8.24859e-05
1.23727e-05
8.30757e-05
1.31068e-05
8.3724e-05
1.37893e-05
1.43489e-05
7.8725e-05
6.02123e-07
7.87643e-05
1.3536e-06
7.88219e-05
1.981e-06
7.88998e-05
2.65101e-06
7.89991e-05
3.33623e-06
7.91208e-05
4.02186e-06
7.92662e-05
4.71129e-06
7.94372e-05
5.40677e-06
7.96357e-05
6.10861e-06
7.98643e-05
6.81682e-06
8.01256e-05
7.53117e-06
8.04226e-05
8.25089e-06
8.07586e-05
8.97459e-06
8.11369e-05
9.70009e-06
8.15609e-05
1.04243e-05
8.20337e-05
1.11426e-05
8.25582e-05
1.18482e-05
8.31361e-05
1.25288e-05
8.37672e-05
1.31583e-05
1.36702e-05
7.87362e-05
5.83908e-07
7.87771e-05
1.31263e-06
7.88373e-05
1.92086e-06
7.89184e-05
2.56992e-06
7.90216e-05
3.23302e-06
7.91478e-05
3.89563e-06
7.92983e-05
4.56078e-06
7.94747e-05
5.23041e-06
7.96787e-05
5.90454e-06
7.99127e-05
6.58291e-06
8.01788e-05
7.26504e-06
8.04797e-05
7.94997e-06
8.08182e-05
8.63614e-06
8.11969e-05
9.32132e-06
8.16188e-05
1.00024e-05
8.20864e-05
1.06751e-05
8.26017e-05
1.13329e-05
8.31661e-05
1.19644e-05
8.37788e-05
1.25455e-05
1.30149e-05
7.87469e-05
5.65089e-07
7.87892e-05
1.27032e-06
7.88513e-05
1.85878e-06
7.89349e-05
2.48632e-06
7.90411e-05
3.1268e-06
7.91708e-05
3.76597e-06
7.9325e-05
4.40654e-06
7.95052e-05
5.05018e-06
7.97131e-05
5.69667e-06
7.99505e-05
6.34554e-06
8.02194e-05
6.99613e-06
8.0522e-05
7.64731e-06
8.08607e-05
8.29743e-06
8.12378e-05
8.94423e-06
8.16555e-05
9.5847e-06
8.21159e-05
1.02147e-05
8.26205e-05
1.08282e-05
8.31702e-05
1.14147e-05
8.37639e-05
1.19519e-05