/*--------------------------------*- C++ -*----------------------------------*\
  =========                 |
  \\      /  F ield         | OpenFOAM: The Open Source CFD Toolbox
   \\    /   O peration     | Website:  https://openfoam.org
    \\  /    A nd           | Version:  6
     \\/     M anipulation  |
\*---------------------------------------------------------------------------*/
FoamFile
{
    version     2.0;
    format      ascii;
    class       volScalarField;
    location    "0.8";
    object      p;
}
// * * * * * * * * * * * * * * * * * * * * * * * * * * * * * * * * * * * * * //

dimensions      [0 2 -2 0 0 0 0];

internalField   nonuniform List<scalar> 
5600
(
996.859
997.653
998.324
998.345
998.273
998.263
998.274
998.282
998.288
998.293
998.3
998.308
998.317
998.326
998.336
998.348
998.361
998.375
998.391
998.408
996.82
997.668
998.337
998.345
998.271
998.262
998.274
998.282
998.287
998.293
998.299
998.307
998.316
998.325
998.335
998.347
998.36
998.374
998.389
998.406
996.798
997.671
998.341
998.343
998.269
998.261
998.272
998.28
998.285
998.29
998.297
998.304
998.312
998.321
998.331
998.343
998.355
998.368
998.383
998.399
996.773
997.671
998.344
998.342
998.266
998.258
998.27
998.276
998.281
998.286
998.292
998.299
998.307
998.315
998.324
998.335
998.346
998.358
998.371
998.385
996.742
997.669
998.347
998.339
998.262
998.254
998.265
998.272
998.276
998.28
998.286
998.292
998.299
998.306
998.315
998.324
998.333
998.343
998.354
998.365
996.707
997.667
998.35
998.336
998.257
998.249
998.26
998.266
998.269
998.273
998.278
998.283
998.289
998.295
998.302
998.309
998.317
998.325
998.333
998.341
996.668
997.666
998.353
998.332
998.251
998.244
998.254
998.259
998.261
998.264
998.268
998.272
998.277
998.282
998.287
998.293
998.298
998.304
998.309
998.313
996.626
997.667
998.357
998.328
998.244
998.237
998.246
998.25
998.251
998.254
998.257
998.26
998.263
998.267
998.271
998.274
998.277
998.279
998.281
998.281
996.577
997.672
998.363
998.321
998.235
998.229
998.238
998.241
998.241
998.243
998.245
998.247
998.249
998.251
998.253
998.254
998.255
998.254
998.252
998.248
996.483
997.702
998.374
998.305
998.222
998.22
998.229
998.23
998.23
998.231
998.232
998.233
998.234
998.235
998.235
998.234
998.232
998.228
998.223
998.215
998.431
998.46
998.494
998.533
998.578
998.629
998.687
998.751
998.82
998.989
998.427
998.456
998.489
998.528
998.571
998.62
998.676
998.737
998.803
998.971
998.418
998.445
998.477
998.514
998.555
998.601
998.653
998.71
998.771
998.934
998.401
998.426
998.456
998.49
998.528
998.57
998.618
998.669
998.724
998.879
998.377
998.399
998.426
998.457
998.491
998.529
998.57
998.614
998.662
998.805
998.347
998.366
998.39
998.417
998.447
998.478
998.512
998.548
998.587
998.716
998.313
998.327
998.349
998.372
998.396
998.421
998.447
998.474
998.502
998.614
998.275
998.286
998.304
998.322
998.34
998.358
998.376
998.393
998.411
998.503
998.234
998.242
998.257
998.27
998.282
998.293
998.303
998.311
998.318
998.387
998.193
998.198
998.209
998.217
998.223
998.228
998.229
998.226
998.219
998.265
998.157
998.165
998.17
998.171
998.168
998.159
998.142
998.117
998.09
998.124
998.119
998.123
998.121
998.116
998.105
998.087
998.06
998.024
997.985
997.999
998.077
998.076
998.069
998.057
998.04
998.014
997.979
997.935
997.89
997.881
998.034
998.028
998.015
997.998
997.974
997.941
997.899
997.848
997.797
997.768
997.989
997.979
997.961
997.938
997.909
997.87
997.821
997.765
997.709
997.663
997.944
997.929
997.908
997.88
997.846
997.802
997.749
997.689
997.629
997.567
997.9
997.882
997.856
997.825
997.787
997.739
997.683
997.621
997.559
997.483
997.859
997.837
997.808
997.774
997.733
997.683
997.626
997.562
997.499
997.412
997.82
997.795
997.765
997.729
997.686
997.636
997.578
997.515
997.451
997.353
997.785
997.758
997.727
997.69
997.646
997.596
997.538
997.475
997.412
997.305
998.153
998.113
998.072
998.031
997.989
997.948
997.907
997.869
997.834
997.802
998.14
998.102
998.063
998.025
997.987
997.949
997.912
997.877
997.844
997.815
998.124
998.088
998.052
998.018
997.983
997.948
997.915
997.883
997.854
997.826
998.109
998.076
998.043
998.011
997.979
997.948
997.917
997.889
997.861
997.836
998.097
998.066
998.035
998.006
997.977
997.948
997.92
997.893
997.868
997.845
998.085
998.056
998.028
998.001
997.974
997.948
997.922
997.898
997.875
997.852
998.075
998.048
998.022
997.997
997.972
997.948
997.924
997.902
997.88
997.859
998.066
998.041
998.017
997.994
997.971
997.948
997.926
997.905
997.885
997.866
998.057
998.034
998.012
997.99
997.969
997.948
997.928
997.908
997.889
997.871
998.05
998.028
998.008
997.988
997.968
997.948
997.929
997.911
997.893
997.876
998.043
998.023
998.004
997.985
997.967
997.948
997.931
997.913
997.897
997.88
998.037
998.018
998
997.983
997.966
997.949
997.932
997.916
997.9
997.885
998.032
998.014
997.997
997.981
997.965
997.949
997.933
997.918
997.903
997.888
998.027
998.01
997.995
997.979
997.964
997.949
997.934
997.919
997.905
997.892
998.022
998.007
997.992
997.977
997.963
997.949
997.935
997.921
997.908
997.895
998.018
998.004
997.99
997.976
997.962
997.949
997.935
997.922
997.91
997.897
998.014
998.001
997.987
997.974
997.962
997.949
997.936
997.924
997.912
997.9
998.011
997.998
997.985
997.973
997.961
997.949
997.937
997.925
997.914
997.902
998.007
997.995
997.984
997.972
997.96
997.949
997.937
997.926
997.915
997.904
998.004
997.993
997.982
997.971
997.96
997.949
997.938
997.927
997.917
997.906
998.002
997.991
997.98
997.97
997.959
997.949
997.938
997.928
997.918
997.908
997.999
997.989
997.979
997.969
997.959
997.949
997.939
997.929
997.919
997.909
997.997
997.987
997.977
997.968
997.958
997.948
997.939
997.929
997.92
997.911
997.995
997.985
997.976
997.967
997.958
997.948
997.939
997.93
997.921
997.912
997.993
997.984
997.975
997.966
997.957
997.948
997.939
997.931
997.922
997.913
997.991
997.982
997.974
997.965
997.957
997.948
997.94
997.931
997.923
997.914
997.989
997.981
997.973
997.964
997.956
997.948
997.94
997.932
997.923
997.915
997.987
997.979
997.972
997.964
997.956
997.948
997.94
997.932
997.924
997.916
997.986
997.978
997.971
997.963
997.955
997.948
997.94
997.932
997.925
997.917
997.984
997.977
997.97
997.962
997.955
997.948
997.94
997.933
997.925
997.918
997.983
997.976
997.969
997.962
997.955
997.947
997.94
997.933
997.926
997.919
997.982
997.975
997.968
997.961
997.954
997.947
997.94
997.933
997.926
997.919
997.981
997.974
997.967
997.961
997.954
997.947
997.94
997.933
997.927
997.92
997.98
997.973
997.967
997.96
997.954
997.947
997.94
997.934
997.927
997.92
997.979
997.972
997.966
997.96
997.953
997.947
997.94
997.934
997.927
997.921
997.978
997.972
997.966
997.959
997.953
997.947
997.94
997.934
997.928
997.921
997.977
997.971
997.965
997.959
997.953
997.947
997.94
997.934
997.928
997.922
997.976
997.97
997.964
997.959
997.953
997.946
997.94
997.934
997.928
997.922
997.975
997.97
997.964
997.958
997.952
997.946
997.94
997.934
997.928
997.922
997.975
997.969
997.964
997.958
997.952
997.946
997.94
997.934
997.928
997.922
997.974
997.969
997.963
997.958
997.952
997.946
997.94
997.934
997.929
997.923
997.974
997.968
997.963
997.957
997.952
997.946
997.94
997.935
997.929
997.923
997.973
997.968
997.963
997.957
997.952
997.946
997.94
997.935
997.929
997.923
997.973
997.968
997.962
997.957
997.951
997.946
997.94
997.935
997.929
997.923
997.972
997.967
997.962
997.957
997.951
997.946
997.94
997.935
997.929
997.923
997.972
997.967
997.962
997.957
997.951
997.946
997.94
997.935
997.929
997.924
997.972
997.967
997.962
997.956
997.951
997.946
997.94
997.935
997.929
997.924
997.972
997.967
997.962
997.956
997.951
997.946
997.94
997.935
997.929
997.924
997.972
997.967
997.961
997.956
997.951
997.946
997.94
997.935
997.929
997.924
997.971
997.967
997.961
997.956
997.951
997.946
997.94
997.935
997.929
997.924
996.288
997.799
998.401
998.276
998.206
998.212
998.219
998.218
998.217
998.216
998.216
998.215
998.214
998.213
998.21
998.207
998.202
998.194
998.184
998.167
996.2
997.831
998.4
998.257
998.196
998.206
998.211
998.209
998.207
998.206
998.205
998.204
998.202
998.2
998.196
998.191
998.185
998.177
998.165
998.149
996.162
997.828
998.392
998.245
998.188
998.198
998.203
998.2
998.198
998.197
998.196
998.194
998.191
998.188
998.184
998.178
998.171
998.162
998.151
998.136
996.137
997.821
998.384
998.235
998.179
998.19
998.194
998.192
998.189
998.188
998.186
998.183
998.18
998.176
998.171
998.165
998.158
998.149
998.138
998.123
996.117
997.812
998.378
998.226
998.17
998.182
998.186
998.183
998.181
998.179
998.176
998.173
998.169
998.165
998.16
998.153
998.146
998.136
998.125
998.111
996.099
997.804
998.371
998.218
998.162
998.174
998.178
998.175
998.172
998.169
998.167
998.163
998.159
998.154
998.149
998.142
998.134
998.124
998.113
998.1
996.082
997.795
998.364
998.21
998.154
998.166
998.17
998.166
998.163
998.161
998.158
998.154
998.15
998.144
998.138
998.131
998.123
998.114
998.103
998.09
996.066
997.786
998.357
998.203
998.146
998.158
998.162
998.158
998.155
998.152
998.149
998.145
998.14
998.135
998.129
998.122
998.113
998.104
998.093
998.08
996.05
997.778
998.351
998.195
998.139
998.15
998.154
998.15
998.147
998.144
998.14
998.136
998.131
998.126
998.12
998.112
998.104
998.095
998.084
998.072
996.034
997.769
998.344
998.188
998.131
998.143
998.146
998.143
998.139
998.136
998.132
998.128
998.123
998.117
998.111
998.104
998.096
998.086
998.076
998.064
996.019
997.761
998.338
998.181
998.124
998.136
998.139
998.135
998.132
998.128
998.125
998.12
998.115
998.109
998.103
998.096
998.088
998.079
998.069
998.057
996.004
997.753
998.332
998.175
998.117
998.129
998.132
998.128
998.124
998.121
998.117
998.113
998.108
998.102
998.095
998.088
998.08
998.072
998.062
998.051
995.989
997.745
998.326
998.168
998.11
998.122
998.125
998.121
998.117
998.114
998.11
998.106
998.1
998.095
998.088
998.081
998.074
998.065
998.055
998.045
995.975
997.737
998.32
998.162
998.104
998.115
998.118
998.114
998.111
998.107
998.103
998.099
998.094
998.088
998.082
998.075
998.067
998.059
998.05
998.04
995.962
997.73
998.315
998.156
998.097
998.109
998.112
998.108
998.104
998.101
998.097
998.092
998.087
998.082
998.075
998.069
998.061
998.053
998.044
998.035
995.948
997.723
998.31
998.15
998.091
998.103
998.106
998.102
998.098
998.095
998.091
998.086
998.081
998.076
998.07
998.063
998.056
998.048
998.039
998.03
995.935
997.716
998.304
998.144
998.085
998.097
998.1
998.096
998.092
998.089
998.085
998.08
998.075
998.07
998.064
998.058
998.05
998.043
998.035
998.026
995.923
997.709
998.299
998.138
998.079
998.091
998.095
998.091
998.087
998.083
998.079
998.075
998.07
998.065
998.059
998.053
998.046
998.038
998.03
998.022
995.911
997.703
998.295
998.133
998.074
998.086
998.089
998.085
998.081
998.078
998.074
998.07
998.065
998.06
998.054
998.048
998.041
998.034
998.026
998.018
995.9
997.697
998.29
998.128
998.069
998.081
998.084
998.08
998.076
998.073
998.069
998.065
998.06
998.055
998.049
998.043
998.037
998.03
998.023
998.015
995.889
997.691
998.286
998.123
998.064
998.076
998.079
998.075
998.071
998.068
998.064
998.06
998.056
998.051
998.045
998.039
998.033
998.026
998.019
998.012
995.878
997.685
998.281
998.118
998.059
998.071
998.074
998.07
998.067
998.064
998.06
998.056
998.051
998.046
998.041
998.035
998.029
998.023
998.016
998.009
995.868
997.68
998.277
998.114
998.054
998.067
998.07
998.066
998.062
998.059
998.056
998.052
998.047
998.042
998.037
998.032
998.026
998.02
998.013
998.006
995.859
997.675
998.273
998.11
998.05
998.062
998.066
998.062
998.058
998.055
998.052
998.048
998.043
998.039
998.034
998.028
998.023
998.016
998.01
998.004
995.85
997.67
998.27
998.106
998.046
998.058
998.062
998.058
998.054
998.051
998.048
998.044
998.04
998.035
998.03
998.025
998.019
998.014
998.007
998.001
995.841
997.665
998.266
998.102
998.042
998.054
998.058
998.054
998.051
998.048
998.044
998.04
998.036
998.032
998.027
998.022
998.017
998.011
998.005
997.999
995.833
997.661
998.263
998.098
998.038
998.051
998.054
998.05
998.047
998.044
998.041
998.037
998.033
998.029
998.024
998.019
998.014
998.008
998.003
997.997
995.825
997.657
998.26
998.095
998.035
998.047
998.051
998.047
998.044
998.041
998.038
998.034
998.03
998.026
998.021
998.016
998.011
998.006
998.001
997.995
995.817
997.653
998.257
998.092
998.031
998.044
998.048
998.044
998.041
998.038
998.034
998.031
998.027
998.023
998.019
998.014
998.009
998.004
997.999
997.993
995.81
997.649
998.254
998.088
998.028
998.041
998.045
998.041
998.038
998.035
998.032
998.028
998.024
998.02
998.016
998.012
998.007
998.002
997.997
997.991
995.804
997.645
998.251
998.085
998.025
998.038
998.042
998.038
998.035
998.032
998.029
998.026
998.022
998.018
998.014
998.009
998.005
998
997.995
997.99
995.798
997.642
998.249
998.083
998.022
998.035
998.039
998.035
998.032
998.029
998.026
998.023
998.02
998.016
998.012
998.007
998.003
997.998
997.993
997.988
995.792
997.639
998.247
998.08
998.02
998.033
998.036
998.033
998.03
998.027
998.024
998.021
998.017
998.014
998.01
998.006
998.001
997.997
997.992
997.987
995.786
997.636
998.244
998.078
998.017
998.03
998.034
998.03
998.027
998.025
998.022
998.019
998.015
998.012
998.008
998.004
997.999
997.995
997.99
997.985
995.781
997.633
998.242
998.076
998.015
998.028
998.032
998.028
998.025
998.023
998.02
998.017
998.013
998.01
998.006
998.002
997.998
997.994
997.989
997.984
995.776
997.631
998.24
998.073
998.013
998.026
998.03
998.026
998.023
998.021
998.018
998.015
998.012
998.008
998.005
998.001
997.997
997.992
997.988
997.983
995.772
997.628
998.239
998.072
998.011
998.024
998.028
998.024
998.022
998.019
998.016
998.013
998.01
998.007
998.003
997.999
997.995
997.991
997.987
997.982
995.768
997.626
998.237
998.07
998.009
998.022
998.026
998.023
998.02
998.017
998.015
998.012
998.009
998.005
998.002
997.998
997.994
997.99
997.986
997.981
995.764
997.624
998.236
998.068
998.007
998.021
998.025
998.021
998.018
998.016
998.013
998.01
998.007
998.004
998
997.997
997.993
997.989
997.985
997.98
995.761
997.622
998.234
998.067
998.006
998.019
998.023
998.02
998.017
998.015
998.012
998.009
998.006
998.003
997.999
997.996
997.992
997.988
997.984
997.98
995.758
997.621
998.233
998.065
998.005
998.018
998.022
998.018
998.016
998.013
998.011
998.008
998.005
998.002
997.998
997.995
997.991
997.987
997.983
997.979
995.755
997.619
998.232
998.064
998.003
998.017
998.021
998.017
998.015
998.012
998.01
998.007
998.004
998.001
997.997
997.994
997.99
997.986
997.982
997.978
995.752
997.618
998.231
998.063
998.002
998.016
998.02
998.016
998.014
998.011
998.009
998.006
998.003
998
997.997
997.993
997.99
997.986
997.982
997.978
995.75
997.616
998.23
998.062
998.001
998.015
998.019
998.015
998.013
998.01
998.008
998.005
998.002
997.999
997.996
997.992
997.989
997.985
997.981
997.977
995.748
997.615
998.229
998.061
998.001
998.014
998.018
998.015
998.012
998.01
998.007
998.005
998.002
997.999
997.995
997.992
997.988
997.985
997.981
997.977
995.747
997.614
998.228
998.061
998
998.013
998.017
998.014
998.011
998.009
998.007
998.004
998.001
997.998
997.995
997.991
997.988
997.984
997.98
997.977
995.748
997.613
998.228
998.061
998
998.013
998.017
998.014
998.011
998.009
998.006
998.004
998.001
997.998
997.994
997.991
997.988
997.984
997.98
997.976
995.75
997.611
998.228
998.061
997.999
998.012
998.017
998.013
998.011
998.008
998.006
998.003
998
997.997
997.994
997.991
997.987
997.984
997.98
997.976
995.766
997.601
998.227
998.064
997.999
998.012
998.016
998.013
998.01
998.008
998.006
998.003
998
997.997
997.994
997.991
997.987
997.984
997.98
997.976
995.822
997.564
998.22
998.07
998
998.011
998.016
998.013
998.01
998.008
998.006
998.003
998
997.997
997.994
997.991
997.987
997.983
997.98
997.976
997.64
997.605
997.574
997.545
997.516
997.484
997.45
997.413
997.377
997.31
997.644
997.61
997.577
997.549
997.52
997.49
997.457
997.423
997.388
997.329
997.638
997.609
997.579
997.554
997.527
997.498
997.467
997.435
997.403
997.352
997.632
997.607
997.58
997.556
997.531
997.504
997.476
997.446
997.417
997.374
997.626
997.605
997.58
997.558
997.534
997.509
997.483
997.456
997.43
997.396
997.622
997.603
997.581
997.56
997.538
997.515
997.49
997.465
997.442
997.416
997.618
997.601
997.582
997.563
997.542
997.519
997.496
997.473
997.452
997.433
997.616
997.601
997.583
997.565
997.545
997.524
997.502
997.48
997.46
997.446
997.615
997.601
997.585
997.567
997.548
997.527
997.505
997.484
997.466
997.455
997.616
997.602
997.586
997.568
997.549
997.528
997.507
997.487
997.469
997.46
997.625
997.634
997.643
997.651
997.66
997.668
997.676
997.684
997.692
997.7
997.707
997.714
997.721
997.727
997.734
997.74
997.745
997.751
997.756
997.762
997.767
997.772
997.776
997.781
997.785
997.789
997.793
997.797
997.801
997.804
997.808
997.811
997.815
997.818
997.821
997.824
997.827
997.83
997.834
997.837
997.84
997.843
997.846
997.849
997.853
997.856
997.86
997.864
997.868
997.872
997.622
997.63
997.64
997.649
997.658
997.666
997.674
997.682
997.69
997.698
997.705
997.712
997.719
997.726
997.732
997.738
997.744
997.75
997.756
997.761
997.766
997.771
997.775
997.78
997.784
997.788
997.792
997.796
997.8
997.804
997.807
997.811
997.814
997.817
997.821
997.824
997.827
997.83
997.833
997.836
997.839
997.842
997.846
997.849
997.852
997.856
997.859
997.863
997.868
997.871
997.617
997.626
997.636
997.646
997.655
997.663
997.672
997.68
997.688
997.696
997.704
997.711
997.718
997.725
997.731
997.737
997.743
997.749
997.754
997.76
997.765
997.77
997.774
997.779
997.783
997.788
997.792
997.796
997.799
997.803
997.807
997.81
997.813
997.817
997.82
997.823
997.826
997.829
997.832
997.835
997.839
997.842
997.845
997.848
997.851
997.855
997.858
997.862
997.866
997.87
997.612
997.62
997.632
997.642
997.652
997.661
997.669
997.678
997.686
997.694
997.702
997.709
997.716
997.723
997.73
997.736
997.742
997.748
997.753
997.759
997.764
997.769
997.774
997.778
997.782
997.787
997.791
997.795
997.799
997.802
997.806
997.809
997.813
997.816
997.819
997.822
997.825
997.828
997.831
997.834
997.837
997.84
997.843
997.847
997.85
997.853
997.856
997.86
997.863
997.867
997.607
997.614
997.627
997.639
997.648
997.658
997.667
997.676
997.684
997.692
997.7
997.708
997.715
997.722
997.728
997.735
997.741
997.747
997.752
997.758
997.763
997.768
997.772
997.777
997.781
997.786
997.79
997.794
997.798
997.801
997.805
997.808
997.812
997.815
997.818
997.821
997.824
997.827
997.83
997.833
997.836
997.839
997.842
997.845
997.848
997.851
997.854
997.857
997.86
997.863
997.602
997.608
997.623
997.635
997.645
997.655
997.665
997.674
997.682
997.691
997.699
997.706
997.713
997.72
997.727
997.733
997.74
997.745
997.751
997.756
997.762
997.767
997.771
997.776
997.78
997.785
997.789
997.793
997.796
997.8
997.804
997.807
997.81
997.814
997.817
997.82
997.823
997.826
997.829
997.832
997.834
997.837
997.84
997.843
997.845
997.848
997.851
997.854
997.857
997.859
997.598
997.603
997.619
997.633
997.643
997.653
997.663
997.672
997.681
997.689
997.697
997.705
997.712
997.719
997.726
997.732
997.738
997.744
997.75
997.755
997.761
997.766
997.77
997.775
997.779
997.784
997.788
997.792
997.795
997.799
997.802
997.806
997.809
997.812
997.815
997.818
997.821
997.824
997.827
997.83
997.832
997.835
997.838
997.84
997.843
997.845
997.847
997.85
997.852
997.855
997.595
997.6
997.618
997.631
997.642
997.652
997.662
997.672
997.68
997.689
997.697
997.704
997.712
997.719
997.725
997.732
997.738
997.743
997.749
997.754
997.76
997.765
997.769
997.774
997.778
997.782
997.786
997.79
997.794
997.798
997.801
997.804
997.808
997.811
997.814
997.817
997.82
997.822
997.825
997.828
997.83
997.833
997.835
997.837
997.839
997.842
997.844
997.846
997.848
997.849
997.593
997.599
997.618
997.632
997.643
997.653
997.663
997.672
997.681
997.689
997.697
997.704
997.711
997.718
997.725
997.731
997.737
997.743
997.748
997.754
997.759
997.764
997.768
997.773
997.777
997.781
997.785
997.789
997.793
997.796
997.8
997.803
997.806
997.809
997.812
997.815
997.818
997.82
997.823
997.825
997.828
997.83
997.832
997.834
997.836
997.838
997.84
997.841
997.843
997.844
997.594
997.606
997.625
997.638
997.648
997.658
997.667
997.675
997.684
997.691
997.699
997.706
997.713
997.719
997.725
997.731
997.737
997.743
997.748
997.753
997.758
997.763
997.768
997.772
997.776
997.78
997.784
997.788
997.791
997.795
997.798
997.801
997.804
997.807
997.81
997.813
997.816
997.818
997.82
997.823
997.825
997.827
997.829
997.831
997.832
997.834
997.835
997.836
997.838
997.838
997.646
997.641
997.641
997.648
997.655
997.663
997.671
997.679
997.687
997.694
997.701
997.708
997.714
997.721
997.727
997.733
997.738
997.744
997.749
997.754
997.759
997.763
997.768
997.772
997.776
997.78
997.784
997.788
997.791
997.794
997.798
997.801
997.804
997.807
997.809
997.812
997.814
997.817
997.819
997.821
997.823
997.825
997.826
997.828
997.829
997.831
997.832
997.832
997.833
997.834
997.66
997.657
997.655
997.659
997.665
997.672
997.679
997.685
997.692
997.699
997.705
997.712
997.718
997.724
997.729
997.735
997.74
997.745
997.75
997.755
997.76
997.764
997.768
997.773
997.777
997.78
997.784
997.787
997.791
997.794
997.797
997.8
997.803
997.806
997.808
997.811
997.813
997.815
997.817
997.819
997.821
997.823
997.824
997.826
997.827
997.828
997.829
997.829
997.829
997.83
997.667
997.668
997.667
997.67
997.675
997.681
997.686
997.692
997.698
997.704
997.71
997.716
997.721
997.727
997.732
997.738
997.743
997.747
997.752
997.757
997.761
997.765
997.769
997.773
997.777
997.781
997.784
997.787
997.791
997.794
997.797
997.8
997.802
997.805
997.807
997.81
997.812
997.814
997.816
997.817
997.819
997.821
997.822
997.823
997.824
997.825
997.825
997.826
997.826
997.826
997.676
997.678
997.677
997.68
997.684
997.689
997.694
997.699
997.704
997.71
997.715
997.72
997.725
997.731
997.735
997.74
997.745
997.75
997.754
997.758
997.762
997.766
997.77
997.774
997.778
997.781
997.784
997.787
997.791
997.793
997.796
997.799
997.801
997.804
997.806
997.808
997.81
997.812
997.814
997.816
997.817
997.819
997.82
997.821
997.821
997.822
997.822
997.822
997.822
997.822
997.685
997.687
997.688
997.69
997.693
997.697
997.702
997.706
997.711
997.715
997.72
997.725
997.73
997.734
997.739
997.743
997.748
997.752
997.756
997.76
997.764
997.768
997.771
997.775
997.778
997.781
997.785
997.788
997.79
997.793
997.796
997.798
997.801
997.803
997.805
997.807
997.809
997.811
997.813
997.814
997.815
997.816
997.817
997.818
997.819
997.819
997.819
997.819
997.819
997.818
997.695
997.697
997.697
997.699
997.702
997.706
997.709
997.713
997.717
997.721
997.725
997.73
997.734
997.738
997.742
997.746
997.75
997.754
997.758
997.762
997.765
997.769
997.772
997.776
997.779
997.782
997.785
997.788
997.79
997.793
997.796
997.798
997.8
997.802
997.804
997.806
997.808
997.809
997.811
997.812
997.813
997.814
997.815
997.816
997.816
997.816
997.816
997.816
997.815
997.814
997.705
997.706
997.707
997.709
997.711
997.714
997.717
997.72
997.723
997.727
997.731
997.734
997.738
997.742
997.746
997.75
997.753
997.757
997.76
997.764
997.767
997.77
997.774
997.777
997.78
997.783
997.785
997.788
997.791
997.793
997.795
997.797
997.8
997.802
997.803
997.805
997.807
997.808
997.809
997.811
997.812
997.812
997.813
997.813
997.814
997.814
997.813
997.813
997.812
997.811
997.715
997.715
997.716
997.718
997.719
997.722
997.724
997.727
997.73
997.733
997.736
997.739
997.743
997.746
997.749
997.753
997.756
997.759
997.763
997.766
997.769
997.772
997.775
997.778
997.781
997.783
997.786
997.788
997.791
997.793
997.795
997.797
997.799
997.801
997.802
997.804
997.805
997.807
997.808
997.809
997.81
997.81
997.811
997.811
997.811
997.811
997.811
997.81
997.809
997.807
997.724
997.725
997.725
997.726
997.728
997.729
997.731
997.734
997.736
997.739
997.741
997.744
997.747
997.75
997.753
997.756
997.759
997.762
997.765
997.768
997.771
997.774
997.776
997.779
997.781
997.784
997.786
997.789
997.791
997.793
997.795
997.797
997.798
997.8
997.802
997.803
997.804
997.806
997.807
997.807
997.808
997.809
997.809
997.809
997.809
997.809
997.808
997.807
997.806
997.804
997.734
997.734
997.734
997.735
997.736
997.737
997.739
997.74
997.742
997.744
997.747
997.749
997.752
997.754
997.757
997.76
997.762
997.765
997.768
997.77
997.773
997.775
997.778
997.78
997.783
997.785
997.787
997.789
997.791
997.793
997.795
997.796
997.798
997.8
997.801
997.802
997.803
997.804
997.805
997.806
997.806
997.807
997.807
997.807
997.807
997.806
997.806
997.805
997.803
997.802
997.744
997.743
997.743
997.743
997.744
997.744
997.746
997.747
997.748
997.75
997.752
997.754
997.756
997.759
997.761
997.763
997.766
997.768
997.77
997.773
997.775
997.777
997.779
997.781
997.784
997.786
997.788
997.79
997.791
997.793
997.795
997.796
997.798
997.799
997.8
997.801
997.802
997.803
997.804
997.805
997.805
997.805
997.805
997.805
997.805
997.804
997.803
997.802
997.801
997.799
997.753
997.751
997.751
997.751
997.751
997.752
997.752
997.753
997.754
997.756
997.757
997.759
997.761
997.763
997.765
997.767
997.769
997.771
997.773
997.775
997.777
997.779
997.781
997.783
997.785
997.787
997.788
997.79
997.792
997.793
997.795
997.796
997.797
997.799
997.8
997.801
997.801
997.802
997.803
997.803
997.804
997.804
997.804
997.803
997.803
997.802
997.801
997.8
997.799
997.797
997.761
997.759
997.759
997.759
997.758
997.758
997.759
997.759
997.76
997.761
997.762
997.764
997.765
997.767
997.768
997.77
997.772
997.774
997.775
997.777
997.779
997.781
997.782
997.784
997.786
997.788
997.789
997.791
997.792
997.794
997.795
997.796
997.797
997.798
997.799
997.8
997.801
997.801
997.802
997.802
997.802
997.802
997.802
997.802
997.801
997.8
997.799
997.798
997.797
997.795
997.77
997.767
997.767
997.766
997.765
997.765
997.765
997.765
997.766
997.767
997.767
997.768
997.77
997.771
997.772
997.773
997.775
997.776
997.778
997.78
997.781
997.783
997.784
997.786
997.787
997.789
997.79
997.791
997.793
997.794
997.795
997.796
997.797
997.798
997.799
997.799
997.8
997.8
997.801
997.801
997.801
997.801
997.801
997.8
997.8
997.799
997.798
997.797
997.795
997.793
997.777
997.775
997.774
997.773
997.772
997.771
997.771
997.771
997.771
997.772
997.772
997.773
997.774
997.775
997.776
997.777
997.778
997.779
997.781
997.782
997.783
997.784
997.786
997.787
997.788
997.79
997.791
997.792
997.793
997.794
997.795
997.796
997.797
997.798
997.798
997.799
997.799
997.8
997.8
997.8
997.8
997.8
997.8
997.799
997.798
997.797
997.796
997.795
997.793
997.792
997.785
997.782
997.781
997.779
997.778
997.777
997.777
997.777
997.776
997.777
997.777
997.777
997.778
997.778
997.779
997.78
997.781
997.782
997.783
997.784
997.785
997.786
997.787
997.789
997.79
997.791
997.792
997.793
997.794
997.795
997.795
997.796
997.797
997.798
997.798
997.799
997.799
997.799
997.799
997.799
997.799
997.799
997.799
997.798
997.797
997.796
997.795
997.794
997.792
997.79
997.792
997.789
997.787
997.786
997.784
997.783
997.782
997.782
997.781
997.781
997.781
997.781
997.782
997.782
997.783
997.783
997.784
997.785
997.786
997.786
997.787
997.788
997.789
997.79
997.791
997.792
997.793
997.794
997.794
997.795
997.796
997.796
997.797
997.798
997.798
997.798
997.799
997.799
997.799
997.799
997.798
997.798
997.798
997.797
997.796
997.795
997.794
997.793
997.791
997.789
997.798
997.795
997.793
997.792
997.79
997.789
997.788
997.787
997.786
997.786
997.785
997.785
997.785
997.786
997.786
997.786
997.787
997.787
997.788
997.789
997.789
997.79
997.791
997.792
997.792
997.793
997.794
997.794
997.795
997.796
997.796
997.797
997.797
997.798
997.798
997.798
997.798
997.798
997.798
997.798
997.798
997.797
997.797
997.796
997.795
997.794
997.793
997.792
997.79
997.789
997.804
997.801
997.799
997.797
997.795
997.794
997.792
997.791
997.791
997.79
997.79
997.789
997.789
997.789
997.789
997.789
997.79
997.79
997.79
997.791
997.791
997.792
997.792
997.793
997.794
997.794
997.795
997.795
997.796
997.796
997.797
997.797
997.797
997.798
997.798
997.798
997.798
997.798
997.798
997.798
997.797
997.797
997.796
997.795
997.795
997.794
997.793
997.791
997.79
997.788
997.81
997.806
997.804
997.802
997.8
997.799
997.797
997.796
997.795
997.794
997.793
997.793
997.793
997.792
997.792
997.792
997.792
997.792
997.793
997.793
997.793
997.794
997.794
997.794
997.795
997.795
997.796
997.796
997.796
997.797
997.797
997.797
997.798
997.798
997.798
997.798
997.798
997.798
997.797
997.797
997.797
997.796
997.796
997.795
997.794
997.793
997.792
997.791
997.789
997.788
997.815
997.811
997.809
997.807
997.805
997.803
997.802
997.8
997.799
997.798
997.797
997.796
997.796
997.796
997.795
997.795
997.795
997.795
997.795
997.795
997.795
997.795
997.796
997.796
997.796
997.796
997.797
997.797
997.797
997.797
997.798
997.798
997.798
997.798
997.798
997.798
997.798
997.798
997.797
997.797
997.796
997.796
997.795
997.795
997.794
997.793
997.792
997.79
997.789
997.787
997.82
997.816
997.814
997.812
997.809
997.807
997.806
997.804
997.803
997.802
997.801
997.8
997.799
997.799
997.798
997.798
997.797
997.797
997.797
997.797
997.797
997.797
997.797
997.797
997.797
997.798
997.798
997.798
997.798
997.798
997.798
997.798
997.798
997.798
997.798
997.798
997.798
997.797
997.797
997.797
997.796
997.796
997.795
997.794
997.793
997.792
997.791
997.79
997.789
997.787
997.824
997.821
997.818
997.816
997.813
997.811
997.81
997.808
997.806
997.805
997.804
997.803
997.802
997.801
997.801
997.8
997.8
997.8
997.799
997.799
997.799
997.799
997.799
997.799
997.799
997.799
997.799
997.799
997.799
997.799
997.799
997.799
997.799
997.798
997.798
997.798
997.798
997.797
997.797
997.797
997.796
997.795
997.795
997.794
997.793
997.792
997.791
997.79
997.789
997.787
997.828
997.825
997.822
997.82
997.817
997.815
997.813
997.811
997.81
997.808
997.807
997.806
997.805
997.804
997.803
997.803
997.802
997.802
997.801
997.801
997.801
997.8
997.8
997.8
997.8
997.8
997.8
997.8
997.799
997.799
997.799
997.799
997.799
997.799
997.798
997.798
997.798
997.797
997.797
997.797
997.796
997.795
997.795
997.794
997.793
997.792
997.791
997.79
997.789
997.787
997.832
997.829
997.826
997.823
997.821
997.819
997.817
997.815
997.813
997.811
997.81
997.809
997.808
997.807
997.806
997.805
997.804
997.804
997.803
997.803
997.802