/*--------------------------------*- C++ -*----------------------------------*\
  =========                 |
  \\      /  F ield         | OpenFOAM: The Open Source CFD Toolbox
   \\    /   O peration     | Website:  https://openfoam.org
    \\  /    A nd           | Version:  6
     \\/     M anipulation  |
\*---------------------------------------------------------------------------*/
FoamFile
{
    version     2.0;
    format      ascii;
    class       volVectorField;
    location    "0.8";
    object      U;
}
// * * * * * * * * * * * * * * * * * * * * * * * * * * * * * * * * * * * * * //

dimensions      [0 1 -1 0 0 0 0];

internalField   nonuniform List<vector> 
5600
(
(1.63768 0.00386992 3.74433e-19)
(1.1593 0.00454282 -6.43371e-18)
(0.981784 0.0043365 6.41923e-18)
(1.00558 0.00364062 0)
(1.02643 0.00344089 0)
(1.02248 0.00380052 0)
(1.01438 0.00430097 -1.19767e-17)
(1.00804 0.00480197 1.19496e-17)
(1.00188 0.00535399 0)
(0.994855 0.0059946 0)
(0.986896 0.00672886 0)
(0.97801 0.00756149 0)
(0.968091 0.00850506 0)
(0.956991 0.00957599 -2.35791e-17)
(0.944551 0.0107921 2.35263e-17)
(0.930597 0.012171 -4.69485e-17)
(0.914934 0.0137258 4.68438e-17)
(0.89736 0.0154534 0)
(0.877675 0.0173114 -3.64354e-19)
(0.855724 0.0191628 0)
(1.64611 0.00703718 -3.69213e-19)
(1.15522 0.00990548 6.3447e-18)
(0.981303 0.010599 -6.33277e-18)
(1.00772 0.0102551 0)
(1.02794 0.0104367 0)
(1.02338 0.0114031 2.44512e-17)
(1.01524 0.0126833 2.28057e-22)
(1.00897 0.0140947 -7.37979e-19)
(1.00286 0.015695 1.29592e-22)
(0.995886 0.0175387 -2.35306e-17)
(0.988011 0.0196458 0)
(0.97924 0.0220384 -4.76165e-17)
(0.969466 0.0247518 4.67952e-17)
(0.958549 0.0278308 0)
(0.946337 0.0313246 0)
(0.932667 0.0352822 0)
(0.917355 0.0397382 0)
(0.900208 0.0446801 -4.6359e-17)
(0.881028 0.0499849 4.66335e-17)
(0.859572 0.0552999 4.54946e-17)
(1.65658 0.00772165 0)
(1.15394 0.0152689 0)
(0.980017 0.0176003 0)
(1.00871 0.0169599 0)
(1.02929 0.0172695 2.3431e-17)
(1.02462 0.0188907 -2.41274e-17)
(1.01661 0.0209729 -1.46011e-18)
(1.01058 0.0232704 -7.2898e-19)
(1.00467 0.0258941 2.32932e-17)
(0.997907 0.028924 -2.18051e-17)
(0.990277 0.0323885 -1.45154e-18)
(0.981796 0.0363229 4.71061e-17)
(0.97237 0.0407841 -4.77604e-17)
(0.96187 0.0458421 1.44517e-18)
(0.950167 0.0515751 4.61781e-17)
(0.937114 0.0580602 -9.36618e-17)
(0.92255 0.0653515 -1.43943e-18)
(0.906295 0.0734274 4.59758e-17)
(0.888154 0.0820876 -1.43466e-18)
(0.867804 0.0907786 -7.16656e-19)
(1.66954 0.0094398 0)
(1.15372 0.0198373 -1.44483e-18)
(0.978348 0.0233518 0)
(1.00923 0.0228341 0)
(1.03058 0.0235186 0)
(1.02609 0.0258735 0)
(1.0184 0.0288043 1.43863e-18)
(1.01276 0.0320225 2.44329e-17)
(1.00723 0.035686 -2.29731e-17)
(1.00086 0.0399009 -1.43442e-18)
(0.993662 0.0447049 2.86603e-18)
(0.985671 0.0501472 0)
(0.976816 0.056304 -4.4337e-17)
(0.966994 0.0632691 4.42933e-17)
(0.956102 0.0711464 4.56779e-17)
(0.944027 0.0800387 -4.56328e-17)
(0.930638 0.0900184 9.26022e-17)
(0.915779 0.101058 -9.10875e-17)
(0.899275 0.11289 1.42187e-18)
(0.880751 0.124788 1.42106e-18)
(1.68478 0.01131 -5.60822e-18)
(1.15361 0.0237984 7.08234e-18)
(0.976414 0.0281569 -1.13389e-17)
(1.00974 0.0278526 -1.13333e-17)
(1.03204 0.029017 2.26582e-17)
(1.02785 0.0321515 2.26478e-17)
(1.02061 0.0359636 -2.26383e-17)
(1.01551 0.0401302 1.41431e-18)
(1.01051 0.044845 1.41372e-18)
(1.00468 0.0502333 4.52204e-17)
(0.99808 0.0563407 -9.04027e-17)
(0.990766 0.0632278 1.41164e-18)
(0.982695 0.0709879 4.65745e-17)
(0.973798 0.0797352 1.41075e-18)
(0.96401 0.0895952 -4.37151e-17)
(0.953261 0.100692 4.79248e-17)
(0.941459 0.113113 1.40895e-18)
(0.928486 0.126826 0)
(0.914204 0.141501 1.40774e-18)
(0.898221 0.156261 1.40753e-18)
(1.70206 0.0130913 5.48798e-18)
(1.15335 0.027218 -5.54516e-18)
(0.974252 0.0321048 1.3882e-18)
(1.01044 0.031952 0)
(1.03383 0.0336451 2.22184e-17)
(1.03 0.0376086 -2.2223e-17)
(1.02329 0.0423365 1.38922e-18)
(1.01882 0.047473 -4.72436e-17)
(1.01446 0.0532408 -2.77975e-18)
(1.00929 0.0597768 8.89651e-17)
(1.00341 0.0671302 -4.72721e-17)
(0.996926 0.0753712 -1.39064e-18)
(0.989822 0.0846067 -4.72911e-17)
(0.982068 0.0949667 -4.59095e-17)
(0.973643 0.106593 8.76612e-17)
(0.964526 0.119625 8.6287e-17)
(0.954678 0.13416 -9.04788e-17)
(0.944023 0.150162 8.77121e-17)
(0.932474 0.167246 -1.79634e-16)
(0.919647 0.184398 8.77579e-17)
(1.72112 0.0148839 0)
(1.15256 0.0299938 0)
(0.9718 0.0349615 -1.35724e-18)
(1.01148 0.0349596 2.17337e-17)
(1.03609 0.0373127 -2.1753e-17)
(1.03261 0.042193 -1.36069e-18)
(1.02647 0.0478813 -1.36191e-18)
(1.02268 0.0540049 1.36312e-18)
(1.019 0.0608122 1.36432e-18)
(1.01455 0.0684462 0)
(1.00948 0.0769586 4.51018e-17)
(1.00394 0.0864271 1.99749e-22)
(0.99795 0.0969699 -4.24426e-17)
(0.991514 0.108728 -8.63303e-17)
(0.984663 0.121853 1.75554e-16)
(0.977431 0.136494 -8.64807e-17)
(0.969833 0.152752 8.79305e-17)
(0.961841 0.170587 -8.66313e-17)
(0.953429 0.18957 -8.80832e-17)
(0.944238 0.208586 8.67853e-17)
(1.74159 0.0174531 0)
(1.15037 0.0317542 1.32181e-18)
(0.968864 0.0361099 -2.11973e-17)
(1.01308 0.0367048 2.25583e-17)
(1.03896 0.0400483 -2.12634e-17)
(1.03568 0.0459447 2.39598e-17)
(1.03005 0.0526318 0)
(1.02695 0.0597476 1.3354e-18)
(1.02396 0.0675523 0)
(1.02025 0.0761967 -1.3397e-18)
(1.01606 0.0857387 4.294e-17)
(1.01155 0.0962644 -4.30091e-17)
(1.00677 0.1079 -8.61574e-17)
(1.00179 0.120793 8.49478e-17)
(0.996671 0.135098 0)
(0.99151 0.150964 0)
(0.986377 0.168494 8.6715e-17)
(0.981299 0.187651 1.8197e-22)
(0.976311 0.207983 -8.69947e-17)
(0.971094 0.22834 8.84902e-17)
(1.76315 0.0242537 -4.45343e-18)
(1.14433 0.0305295 4.50318e-18)
(0.965528 0.0334874 0)
(1.01592 0.0370341 -1.94157e-18)
(1.04247 0.0421875 -2.07575e-17)
(1.03897 0.0490867 -2.21074e-17)
(1.03383 0.0567652 8.34265e-17)
(1.03139 0.064881 -4.31196e-17)
(1.02906 0.0736287 -4.1913e-17)
(1.02612 0.0831759 4.33263e-17)
(1.02283 0.0936053 -8.42284e-17)
(1.01941 0.105013 1.68861e-16)
(1.01593 0.117528 1.78966e-22)
(1.01249 0.131294 -8.48375e-17)
(1.00921 0.146461 0)
(1.00622 0.163167 8.52475e-17)
(1.00368 0.181511 -1.70907e-16)
(1.00166 0.201467 8.566e-17)
(1.0003 0.222597 0)
(0.999364 0.243735 0)
(1.78633 0.0392122 -5.56252e-18)
(1.12782 0.0210657 4.37688e-18)
(0.964358 0.0241836 0)
(1.02253 0.0363893 2.07914e-17)
(1.04653 0.044546 -2.02255e-17)
(1.04193 0.0520364 -4.05785e-17)
(1.03749 0.0605374 -2.04403e-22)
(1.03577 0.0696401 8.16775e-17)
(1.03407 0.0792665 -8.19397e-17)
(1.0319 0.0896078 4.11016e-17)
(1.02958 0.100806 -8.24682e-17)
(1.0273 0.112972 8.27344e-17)
(1.02517 0.126228 -8.30022e-17)
(1.02331 0.140704 8.32713e-17)
(1.02188 0.15653 8.35419e-17)
(1.02106 0.17382 -8.38139e-17)
(1.02109 0.19265 0)
(1.02213 0.213016 -8.43616e-17)
(1.02446 0.234638 8.4638e-17)
(1.0279 0.256389 8.48915e-17)
(0.828179 0.0207752 0)
(0.790774 0.0229912 0)
(0.745855 0.0255328 4.24173e-17)
(0.69136 0.0284508 -2.3024e-17)
(0.624537 0.0317499 -2.51771e-17)
(0.541888 0.0352721 4.16513e-17)
(0.439695 0.0384528 -1.54693e-17)
(0.314396 0.0399384 3.49088e-17)
(0.164764 0.0370092 0)
(0.0460874 0.020983 0)
(0.832727 0.0602476 -1.84051e-17)
(0.796081 0.0669951 -5.93228e-17)
(0.751913 0.0747642 -2.13358e-17)
(0.698315 0.0837062 2.31614e-17)
(0.632536 0.0938404 2.53232e-17)
(0.551031 0.10468 -5.5846e-17)
(0.449956 0.114526 4.66533e-17)
(0.325493 0.119227 -8.76866e-17)
(0.17538 0.110185 -1.00418e-17)
(0.0523685 0.0626808 6.41991e-17)
(0.842403 0.0989064 1.84811e-17)
(0.807162 0.110017 -1.98563e-17)
(0.764449 0.122841 4.28504e-17)
(0.712594 0.137599 4.65227e-17)
(0.648836 0.154321 -5.08742e-17)
(0.569546 0.172188 -2.80521e-17)
(0.470616 0.188385 3.12545e-17)
(0.347583 0.196006 -5.2879e-17)
(0.196482 0.180525 8.07685e-17)
(0.0649395 0.102864 -1.52639e-16)
(0.857563 0.135895 3.69885e-17)
(0.824265 0.151198 0)
(0.783592 0.168858 0)
(0.734211 0.189134 -4.65577e-17)
(0.673326 0.212062 5.09124e-17)
(0.597171 0.236489 2.04221e-21)
(0.501254 0.2585 0)
(0.380122 0.268537 7.05687e-17)
(0.227477 0.246548 -6.06279e-17)
(0.0833968 0.140313 1.88037e-16)
(0.877939 0.169957 -3.68932e-17)
(0.847042 0.189141 0)
(0.808908 0.211303 8.55245e-17)
(0.762629 0.236686 0)
(0.705343 0.265335 5.07562e-17)
(0.633103 0.295754 5.59711e-17)
(0.540913 0.322957 0)
(0.422059 0.334869 1.40635e-16)
(0.267295 0.306433 -2.01342e-17)
(0.107041 0.173902 -7.02281e-17)
(0.902833 0.20018 1.93704e-21)
(0.874712 0.222824 -1.57573e-16)
(0.839535 0.24905 -2.58146e-21)
(0.796882 0.279028 0)
(0.74379 0.312803 -5.04233e-17)
(0.676086 0.348539 -5.55829e-17)
(0.588179 0.380205 0)
(0.471864 0.393372 -1.39555e-16)
(0.314432 0.35857 -1.59715e-16)
(0.134922 0.202663 2.31969e-17)
(0.931286 0.225929 7.22611e-22)
(0.906209 0.251571 1.06663e-21)
(0.87431 0.281366 1.68363e-16)
(0.83569 0.315373 -1.23731e-21)
(0.787233 0.353618 -9.98119e-17)
(0.724505 0.393908 -1.09982e-16)
(0.641249 0.429193 -3.0603e-17)
(0.527599 0.442874 3.44752e-17)
(0.367018 0.401743 1.1828e-16)
(0.165849 0.225826 2.28789e-16)
(0.962211 0.246868 -1.7045e-21)
(0.940262 0.275086 7.70809e-17)
(0.911839 0.307957 -1.66211e-16)
(0.877519 0.345419 -4.50755e-17)
(0.833953 0.387455 2.46142e-16)
(0.77645 0.431485 1.08434e-16)
(0.69804 0.469462 -1.20594e-16)
(0.587091 0.482822 0)
(0.422996 0.435345 3.87686e-17)
(0.198488 0.242965 -4.0444e-16)
(0.994488 0.263088 -1.1877e-21)
(0.97522 0.293465 -7.58867e-17)
(0.950288 0.328986 3.88171e-21)
(0.920393 0.369403 -8.8679e-17)
(0.88186 0.414611 9.67971e-17)
(0.829809 0.461618 5.3271e-17)
(0.756521 0.501402 5.92067e-17)
(0.648449 0.513646 -3.32865e-17)
(0.480576 0.459771 3.79758e-17)
(0.231527 0.254176 1.75833e-16)
(1.02612 0.276187 -6.94258e-17)
(1.00842 0.308261 -7.44879e-17)
(0.987145 0.346059 8.02481e-17)
(0.961834 0.388945 8.6956e-17)
(0.928619 0.436598 -1.89752e-16)
(0.882476 0.485516 0)
(0.814733 0.525738 0)
(0.709545 0.535557 -3.25376e-17)
(0.537131 0.474962 3.70716e-17)
(0.262941 0.259227 0)
(1.0551 0.296607 6.78981e-17)
(1.03813 0.329661 7.29286e-17)
(1.02041 0.36777 0)
(0.998967 0.410821 -8.53e-17)
(0.970194 0.457675 0)
(0.92867 0.504057 -1.0263e-16)
(0.864608 0.539448 -5.70842e-17)
(0.760111 0.542285 -6.42622e-17)
(0.582235 0.474117 -1.46869e-16)
(0.287086 0.254651 1.70383e-16)
(1.08631 0.314945 1.57144e-21)
(1.07287 0.348541 -1.48318e-16)
(1.05865 0.386126 2.16498e-21)
(1.04065 0.428058 8.67821e-17)
(1.01526 0.472297 0)
(0.97634 0.51374 1.04484e-16)
(0.912882 0.541449 0)
(0.805353 0.534534 1.30984e-16)
(0.619258 0.457467 1.50146e-20)
(0.304822 0.240143 -1.73875e-16)
(1.11886 0.32918 7.00194e-17)
(1.1094 0.362288 -7.52243e-17)
(1.09854 0.398652 2.43433e-16)
(1.08354 0.438453 -8.80641e-17)
(1.06059 0.478912 -9.62493e-17)
(1.02284 0.514247 -5.30435e-17)
(0.958171 0.533306 2.34639e-21)
(0.845824 0.516167 6.65588e-17)
(0.650515 0.430726 2.66539e-16)
(0.31809 0.219828 4.42365e-17)
(1.15243 0.338484 -1.41706e-16)
(1.14665 0.370378 0)
(1.13878 0.404769 -4.43371e-21)
(1.12613 0.441453 8.91496e-17)
(1.10459 0.477071 2.43663e-16)
(1.0666 0.505387 5.37237e-17)
(0.999126 0.515321 1.19673e-16)
(0.880535 0.488294 -1.01201e-16)
(0.675326 0.396072 -1.93118e-16)
(0.326783 0.195623 1.79586e-16)
(1.18632 0.342548 7.15243e-17)
(1.18367 0.372558 7.68484e-17)
(1.17816 0.40424 -1.65849e-16)
(1.16697 0.436902 -4.50164e-17)
(1.14557 0.466747 -1.96883e-16)
(1.10572 0.487305 -1.62835e-16)
(1.0337 0.487883 -2.41879e-16)
(0.907417 0.451675 1.36421e-16)
(0.691925 0.354802 0)
(0.330274 0.168741 -2.04477e-16)
(1.21952 0.341165 1.08021e-16)
(1.21929 0.368686 0)
(1.21528 0.396993 0)
(1.20445 0.424881 0)
(1.18173 0.448253 0)
(1.13833 0.460623 1.09373e-16)
(1.06003 0.451992 1.21876e-16)
(0.924832 0.407716 0)
(0.699205 0.308626 0)
(0.328365 0.140428 -9.16707e-17)
(1.25095 0.334359 -3.61604e-17)
(1.25229 0.358865 -8.56574e-22)
(1.24874 0.383237 -4.19331e-17)
(1.23697 0.405777 4.55327e-17)
(1.21138 0.422246 -4.98007e-17)
(1.16272 0.426352 1.37341e-16)
(1.07663 0.409081 -3.06138e-17)
(0.931723 0.358237 6.90919e-17)
(0.696752 0.259499 -1.97971e-17)
(0.321242 0.111912 9.2181e-17)
(1.27957 0.322385 7.24348e-17)
(1.28146 0.343456 -3.89158e-17)
(1.27716 0.363459 0)
(1.26303 0.380279 -4.5609e-17)
(1.23299 0.389691 0)
(1.17752 0.385809 -5.50323e-17)
(1.08245 0.360837 -3.06661e-17)
(0.927594 0.305221 3.46081e-17)
(0.684722 0.209388 0)
(0.309373 0.084303 -1.15457e-17)
(1.30434 0.305701 -5.4266e-17)
(1.30567 0.323042 3.8872e-17)
(1.29938 0.338389 0)
(1.28148 0.349309 0)
(1.24557 0.351764 4.98243e-17)
(1.18204 0.340465 -2.74827e-17)
(1.07729 0.309041 -3.06284e-17)
(0.912832 0.250659 -6.91345e-17)
(0.663978 0.16017 3.96194e-17)
(0.293501 0.0585749 -5.18823e-17)
(1.32459 0.284927 5.40636e-17)
(1.32434 0.298263 -5.61582e-22)
(1.31488 0.308673 -2.08946e-17)
(1.2919 0.313577 0)
(1.24879 0.309315 -2.48128e-17)
(1.17613 0.291415 -1.36839e-17)
(1.06127 0.255111 3.81247e-17)
(0.887864 0.196261 8.60379e-18)
(0.635184 0.113557 -4.43679e-17)
(0.27412 0.0355639 5.16337e-17)
(1.06859 0.272511 -4.17973e-16)
(1.09754 0.289152 1.03389e-16)
(1.12703 0.302472 0)
(1.15742 0.311593 1.02267e-16)
(1.18834 0.316255 -3.29639e-23)
(1.21888 0.316274 -1.56356e-18)
(1.24813 0.311615 7.77808e-19)
(1.2752 0.302432 -4.99583e-17)
(1.29925 0.289049 4.98008e-17)
(1.31951 0.272022 -2.46534e-17)
(1.07848 0.259913 2.08444e-16)
(1.10518 0.273879 0)
(1.13226 0.285225 0)
(1.1601 0.293129 1.0053e-16)
(1.18861 0.297292 1.57175e-18)
(1.21695 0.297545 -7.8107e-19)
(1.24434 0.293839 7.77114e-19)
(1.27002 0.286274 4.87604e-17)
(1.29328 0.275082 -4.93817e-17)
(1.31329 0.260775 2.46383e-17)
(1.08801 0.249299 0)
(1.11216 0.26102 -1.03024e-16)
(1.13678 0.270353 1.0209e-16)
(1.16212 0.276859 -1.01284e-16)
(1.18822 0.280261 0)
(1.21433 0.280408 -7.81374e-19)
(1.2398 0.277249 -9.87563e-17)
(1.26398 0.27085 0)
(1.28628 0.261386 0)
(1.30584 0.24931 -2.46659e-17)
(1.09647 0.239073 0)
(1.11848 0.248794 1.15489e-21)
(1.14086 0.25639 -1.02007e-16)
(1.16385 0.261656 1.01245e-16)
(1.18761 0.264351 7.8588e-19)
(1.21153 0.264343 -1.00828e-16)
(1.23504 0.261586 -2.62562e-22)
(1.25761 0.256121 0)
(1.27879 0.248076 0)
(1.29771 0.237844 0)
(1.10352 0.229115 -1.03629e-16)
(1.12373 0.2372 2.05503e-16)
(1.14417 0.243374 7.96261e-19)
(1.1651 0.247581 -1.01998e-16)
(1.18674 0.249637 -7.8589e-19)
(1.2086 0.249439 -1.00081e-16)
(1.23024 0.246954 1.50264e-16)
(1.25121 0.24221 -3.87961e-19)
(1.27119 0.235305 -4.91453e-17)
(1.28932 0.226573 -2.4722e-17)
(1.10922 0.219384 2.06869e-16)
(1.12785 0.226176 -1.02615e-16)
(1.1466 0.231221 1.01839e-16)
(1.16575 0.234562 1.00379e-16)
(1.18553 0.236071 1.02168e-16)
(1.20555 0.235679 9.93326e-17)
(1.22545 0.23337 -4.98591e-17)
(1.2449 0.229173 -3.88288e-19)
(1.26366 0.223167 3.87075e-19)
(1.28091 0.215642 2.47498e-17)
(1.11371 0.209872 -1.03643e-16)
(1.13092 0.215623 -1.02078e-16)
(1.14821 0.219777 -1.01756e-16)
(1.16582 0.22243 -1.01131e-16)
(1.18397 0.223498 -9.98117e-17)
(1.20235 0.22294 9.85841e-17)
(1.2207 0.220759 -4.91104e-17)
(1.23874 0.216986 0)
(1.25631 0.211693 9.92648e-17)
(1.27265 0.205138 0)
(1.11714 0.200594 0)
(1.13308 0.205492 1.02344e-16)
(1.14906 0.20894 -1.01672e-16)
(1.16532 0.211055 7.89781e-19)
(1.18206 0.211781 -1.0217e-16)
(1.19902 0.211099 -1.00183e-16)
(1.21598 0.209026 5.07007e-17)
(1.23273 0.205595 -4.97851e-17)
(1.24917 0.200877 -9.93653e-17)
(1.26461 0.195109 0)
(1.11964 0.191571 -1.02851e-16)
(1.13443 0.195765 0)
(1.14926 0.198651 1.01589e-16)
(1.16434 0.200346 1.01844e-16)
(1.17984 0.200815 1.23875e-22)
(1.19554 0.200051 9.94342e-17)
(1.21127 0.198079 0)
(1.22688 0.194937 4.98268e-17)
(1.24228 0.190693 4.99271e-17)
(1.25685 0.185568 -2.50283e-17)
(1.12134 0.182818 1.02659e-16)
(1.13509 0.18643 -1.02073e-16)
(1.14889 0.188866 1.01506e-16)
(1.16293 0.190235 -1.00228e-16)
(1.17734 0.190515 1.99629e-16)
(1.19194 0.189705 -9.86848e-17)
(1.20659 0.187836 -7.80982e-19)
(1.22116 0.184945 -3.89596e-19)
(1.23561 0.181102 -4.93945e-17)
(1.24936 0.176513 2.48623e-17)
(1.12235 0.174347 0)
(1.13517 0.177476 1.01939e-16)
(1.14804 0.17955 -1.01423e-16)
(1.16116 0.180667 -7.88892e-19)
(1.1746 0.18081 -9.90297e-17)
(1.18823 0.179985 -7.83486e-19)
(1.20193 0.178221 -7.81449e-19)
(1.21558 0.175556 7.79862e-19)
(1.22916 0.172059 4.98338e-17)
(1.24215 0.167923 2.48907e-17)
(1.12279 0.166166 1.02674e-16)
(1.13476 0.168895 -3.97676e-19)
(1.1468 0.170677 0)
(1.15909 0.171598 0)
(1.17168 0.171645 7.85949e-19)
(1.18445 0.170826 -5.17272e-17)
(1.1973 0.16917 1.29103e-23)
(1.21012 0.166713 5.0343e-17)
(1.22292 0.16352 3.89725e-19)
(1.2352 0.159775 -2.49188e-17)
(1.12273 0.15828 -1.02084e-16)
(1.13394 0.160675 -1.0167e-16)
(1.14525 0.162221 -1.01257e-16)
(1.15679 0.162989 -7.88298e-19)
(1.16862 0.162971 1.2748e-23)
(1.18062 0.162176 5.01767e-17)
(1.1927 0.160629 7.82427e-19)
(1.20479 0.158364 9.52671e-23)
(1.21688 0.155444 0)
(1.22852 0.15204 0)
(1.12228 0.150687 -1.02292e-16)
(1.13281 0.152805 2.03469e-16)
(1.14344 0.154158 1.01174e-16)
(1.15432 0.154809 0)
(1.16546 0.15475 -9.9818e-17)
(1.17677 0.153989 4.94094e-17)
(1.18817 0.15255 0)
(1.19959 0.150465 -5.04277e-17)
(1.21103 0.14779 -2.46024e-17)
(1.22208 0.144689 0)
(1.12149 0.143386 1.02102e-16)
(1.1314 0.145272 -1.01799e-16)
(1.14143 0.146469 0)
(1.1517 0.147029 1.00039e-16)
(1.16223 0.146946 1.00605e-16)
(1.17291 0.146227 -1.00421e-16)
(1.1837 0.144895 -4.93533e-17)
(1.19451 0.142976 0)
(1.20537 0.140525 2.50182e-17)
(1.21588 0.137694 0)
(1.12044 0.136371 1.01515e-16)
(1.12979 0.138063 0)
(1.13927 0.139134 0)
(1.149 0.139623 -1.00001e-16)
(1.15896 0.139529 -1.06971e-23)
(1.16909 0.138857 4.8658e-17)
(1.17931 0.137627 5.09515e-17)
(1.18958 0.135864 -3.91569e-19)
(1.1999 0.133618 1.95658e-19)
(1.20992 0.131031 1.95568e-19)
(1.11918 0.129635 -2.02653e-16)
(1.12802 0.131165 1.01136e-16)
(1.13701 0.132132 7.88478e-19)
(1.14624 0.132568 -7.87117e-19)
(1.15569 0.132472 -5.0303e-17)
(1.16531 0.131849 0)
(1.17502 0.130718 0)
(1.18479 0.1291 5.01635e-17)
(1.19462 0.127042 0)
(1.20418 0.124675 0)
(1.11775 0.12317 1.01534e-16)
(1.12614 0.124564 -1.01399e-16)
(1.13467 0.125445 7.87833e-19)
(1.14345 0.125841 -1.02286e-16)
(1.15244 0.12575 5.10893e-17)
(1.16159 0.125178 0)
(1.17084 0.12414 -7.84831e-19)
(1.18015 0.122656 -4.98135e-17)
(1.18953 0.12077 1.96056e-19)
(1.19867 0.118605 1.96015e-19)
(1.11619 0.116967 -1.01345e-16)
(1.12416 0.118245 3.94031e-19)
(1.13229 0.119056 -1.00761e-16)
(1.14065 0.119422 1.00674e-16)
(1.14922 0.11934 7.85988e-19)
(1.15794 0.118818 -7.85607e-19)
(1.16677 0.117868 4.94752e-17)
(1.17567 0.11651 7.85132e-19)
(1.18463 0.114782 0)
(1.19337 0.112801 0)
(1.11453 0.111016 -3.93321e-19)
(1.12213 0.112196 1.01133e-16)
(1.12989 0.112949 1.00678e-16)
(1.13787 0.113291 -1.01422e-16)
(1.14606 0.113223 5.10898e-17)
(1.15439 0.112749 0)
(1.16283 0.111882 -5.02914e-17)
(1.17134 0.11064 -3.92893e-19)
(1.17991 0.109058 3.92907e-19)
(1.1883 0.107244 0)
(1.11282 0.105305 3.93146e-19)
(1.12007 0.106401 -1.01e-16)
(1.12749 0.107106 -1.00596e-16)
(1.13513 0.107431 1.00597e-16)
(1.14296 0.107377 -1.00608e-16)
(1.15093 0.106951 0)
(1.15901 0.106162 0)
(1.16717 0.105027 -3.93225e-19)
(1.17539 0.103579 -2.49749e-17)
(1.18344 0.101918 2.53726e-17)
(1.11106 0.099824 1e-16)
(1.11801 0.100848 -1.00083e-16)
(1.12511 0.101512 1.00514e-16)
(1.13243 0.101825 -5.1065e-17)
(1.13994 0.101787 7.86033e-19)
(1.14758 0.101405 0)
(1.15533 0.100689 -5.03535e-17)
(1.16316 0.0996528 -3.93557e-19)
(1.17105 0.0983281 2.5591e-17)
(1.17879 0.0968085 -2.52047e-17)
(1.10929 0.0945624 0)
(1.11595 0.0955239 1.00344e-16)
(1.12276 0.0961527 -1.00431e-16)
(1.12979 0.0964562 5.10456e-17)
(1.137 0.0964353 4.95183e-17)
(1.14434 0.0960957 0)
(1.15179 0.0954468 4.95973e-17)
(1.15931 0.094502 3.93897e-19)
(1.1669 0.0932908 1.97058e-19)
(1.17435 0.0919003 1.97139e-19)
(1.10751 0.0895091 3.90711e-19)
(1.11391 0.0904155 -3.91459e-19)
(1.12046 0.0910141 1.00349e-16)
(1.12723 0.0913105 7.85012e-19)
(1.13416 0.0913059 -5.03044e-17)
(1.14123 0.091006 4.95761e-17)
(1.14839 0.0904197 -4.96279e-17)
(1.15563 0.0895593 2.40477e-17)
(1.16294 0.0884525 5.91771e-19)
(1.17012 0.0871807 -1.97365e-19)
(1.10575 0.0846532 9.94484e-17)
(1.11191 0.0855107 3.90948e-19)
(1.11822 0.0860827 0)
(1.12474 0.0863735 0)
(1.13142 0.0863847 2.32898e-23)
(1.13823 0.0861218 -5.038e-17)
(1.14514 0.0855933 1.00105e-16)
(1.15211 0.0848108 3.94577e-19)
(1.15916 0.0838001 1.97461e-19)
(1.16609 0.0826373 1.28434e-17)
(1.10401 0.0799841 -9.92657e-17)
(1.10995 0.0807975 -3.90437e-19)
(1.11605 0.0813458 -5.00923e-17)
(1.12234 0.0816319 0)
(1.12879 0.0816579 5.03046e-17)
(1.13536 0.0814294 0)
(1.14202 0.0809542 -4.96891e-17)
(1.14876 0.0802434 -2.64578e-17)
(1.15555 0.0793212 3.95323e-19)
(1.16225 0.0782586 1.32876e-23)
(1.10232 0.0754916 -9.98604e-17)
(1.10805 0.0762647 3.89928e-19)
(1.11395 0.0767912 5.00513e-17)
(1.12003 0.0770731 -7.8411e-19)
(1.12626 0.0771128 7.86013e-19)
(1.13261 0.0769159 0)
(1.13905 0.0764898 -7.89199e-19)
(1.14556 0.075845 3.95232e-19)
(1.15213 0.0750043 1.97866e-19)
(1.15861 0.0740339 -1.24769e-17)
(1.10066 0.0711655 9.89017e-17)
(1.10621 0.0719014 3.89419e-19)
(1.11192 0.0724073 -7.81407e-19)
(1.11781 0.0726851 1.56762e-18)
(1.12384 0.0727372 -7.86013e-19)
(1.12999 0.0725692 0)
(1.13623 0.0721883 -2.527e-17)
(1.14253 0.0716042 0)
(1.14889 0.0708385 0)
(1.15517 0.069953 1.26896e-17)
(1.09906 0.066996 4.95537e-17)
(1.10444 0.0676969 0)
(1.10998 0.0681834 0)
(1.11569 0.0684568 -7.83507e-19)
(1.12154 0.0685199 -4.95186e-17)
(1.1275 0.0683782 0)
(1.13354 0.0680385 2.60758e-17)
(1.13965 0.0675103 -1.18769e-18)
(1.14581 0.0668137 3.96542e-19)
(1.15191 0.0660064 -1.27042e-17)
(1.09752 0.0629737 -9.93125e-17)
(1.10274 0.0636412 3.88405e-19)
(1.10812 0.0641088 7.80127e-19)
(1.11367 0.0643773 -5.16917e-17)
(1.11935 0.0644499 1.02181e-16)
(1.12513 0.064332 -7.88505e-19)
(1.131 0.0640301 2.53012e-17)
(1.13693 0.0635532 -3.96232e-19)
(1.14291 0.0629202 1.98476e-19)
(1.14883 0.062185 1.98733e-19)
(1.09604 0.0590895 4.89869e-17)
(1.10112 0.0597248 3.879e-19)
(1.10635 0.0601736 0)
(1.11175 0.0604367 4.9323e-17)
(1.11727 0.0605172 -4.95185e-17)
(1.12289 0.0604206 2.52405e-17)
(1.1286 0.0601531 1.76677e-24)
(1.13436 0.0597234 -3.96569e-19)
(1.14017 0.059149 3.97358e-19)
(1.14593 0.0584802 0)
(1.09462 0.0553343 -3.85017e-19)
(1.09958 0.0559383 3.87395e-19)
(1.10467 0.0563683 0)
(1.10993 0.0566252 -5.00865e-17)
(1.11531 0.0567122 7.86003e-19)
(1.12078 0.0566345 -5.12868e-17)
(1.12634 0.0563984 -2.53325e-17)
(1.13195 0.0560118 -2.5799e-17)
(1.1376 0.0554915 1.98885e-19)
(1.1432 0.0548839 1.99193e-19)
(1.09328 0.0516997 -4.95767e-17)
(1.09811 0.0522729 4.99088e-17)
(1.10309 0.0526839 0)
(1.10821 0.0529337 5.08495e-17)
(1.11346 0.0530256 -7.86006e-19)
(1.1188 0.0529647 2.52573e-17)
(1.12421 0.052757 0)
(1.12968 0.05241 2.50264e-17)
(1.13519 0.0519395 5.97264e-19)
(1.14065 0.0513886 -1.99424e-19)
(1.09201 0.0481774 4.87192e-17)
(1.09673 0.04872 3.86347e-19)
(1.10159 0.0491118 7.77571e-19)
(1.1066 0.0493536 -7.81998e-19)
(1.11172 0.0494489 0)
(1.11693 0.0494027 2.52657e-17)
(1.12222 0.0492206 -2.61563e-17)
(1.12756 0.04891 2.58429e-17)
(1.13293 0.0484853 1.99295e-19)
(1.13826 0.0479867 1.29776e-17)
(1.09081 0.0447595 -4.90133e-17)
(1.09543 0.0452715 -4.93933e-17)
(1.10019 0.0456435 0)
(1.10509 0.0458765 0)
(1.1101 0.0459737 0)
(1.1152 0.0459402 -5.05481e-17)
(1.12036 0.0457813 7.93102e-19)
(1.12558 0.0455039 -2.66607e-17)
(1.13082 0.0451217 3.98999e-19)
(1.13603 0.0446714 -1.27927e-17)
(1.08969 0.0414381 -3.82176e-19)
(1.09422 0.0419196 3.85386e-19)
(1.09888 0.0422714 -7.76296e-19)
(1.10368 0.0424944 7.81391e-19)
(1.10859 0.0425923 7.85992e-19)
(1.11358 0.0425696 -7.90075e-19)
(1.11863 0.0424316 2.46014e-17)
(1.12374 0.0421847 3.98263e-19)
(1.12887 0.0418415 3.99411e-19)
(1.13397 0.0414361 0)
(1.08865 0.038206 4.84537e-17)
(1.09309 0.0386567 3.84886e-19)
(1.09767 0.0389876 2.48212e-17)
(1.10237 0.0391999 7.81082e-19)
(1.10718 0.039297 -4.86125e-24)
(1.11208 0.0392835 -7.90337e-19)
(1.11703 0.0391642 0)
(1.12203 0.0389452 0)
(1.12706 0.0386381 1.27943e-17)
(1.13206 0.0382743 0)
(1.08768 0.0350559 3.80832e-19)
(1.09205 0.0354755 -3.84387e-19)
(1.09655 0.0357851 -2.55758e-17)
(1.10117 0.0359857 4.66593e-24)
(1.10589 0.0360809 7.85989e-19)
(1.1107 0.0360748 2.52992e-17)
(1.11556 0.0359722 2.54264e-17)
(1.12046 0.0357788 -3.98937e-19)
(1.12539 0.0355052 -1.24073e-17)
(1.1303 0.03518 0)
(1.08679 0.0319811 -3.80141e-19)
(1.09109 0.0323692 3.83889e-19)
(1.09552 0.0326567 -2.47804e-17)
(1.10006 0.0328448 0)
(1.10471 0.0329368 0)
(1.10943 0.0329369 0)
(1.11421 0.0328492 -2.54421e-17)
(1.11903 0.0326792 -1.31762e-17)
(1.12387 0.0324366 4.00653e-19)
(1.12869 0.0321473 0)
(1.08598 0.0289746 -3.79452e-19)
(1.09021 0.0293309 3.83391e-19)
(1.09458 0.0295958 2.39863e-17)
(1.09906 0.0297706 4.48772e-24)
(1.10363 0.0298584 7.85979e-19)
(1.10828 0.0298631 0)
(1.11298 0.0297888 7.95554e-19)
(1.11772 0.0296402 1.1589e-17)
(1.12248 0.0294264 -1.24331e-17)
(1.12722 0.0291707 0)
(1.08524 0.0260303 0)
(1.08943 0.0263543 2.45052e-17)
(1.09373 0.0265959 2.47397e-17)
(1.09815 0.0267565 -7.79862e-19)
(1.10266 0.0268391 7.85973e-19)
(1.10724 0.0268473 0)
(1.11188 0.0267848 1.35328e-17)
(1.11655 0.026656 -1.19988e-18)
(1.12123 0.026469 1.30482e-17)
(1.1259 0.0262447 2.01289e-19)
(1.08459 0.0231416 -3.7808e-19)
(1.08872 0.0234328 -2.40911e-17)
(1.09297 0.0236506 -2.39469e-17)
(1.09734 0.0237963 -4.34455e-24)
(1.10179 0.0238728 -7.85967e-19)
(1.10631 0.0238834 0)
(1.11089 0.0238314 -1.35412e-17)
(1.11549 0.0237209 4.00306e-19)
(1.12011 0.0235589 6.02852e-19)
(1.12472 0.023364 -2.01525e-19)
(1.08401 0.0203025 3.77397e-19)
(1.0881 0.0205604 -3.81906e-19)
(1.0923 0.0207538 0)
(1.09662 0.020884 0)
(1.10102 0.0209536 0)
(1.10549 0.0209656 -1.26705e-17)
(1.11001 0.020923 -1.27525e-17)
(1.11456 0.0208293 -4.00644e-19)
(1.11913 0.0206907 2.01161e-19)
(1.12367 0.0205235 2.01761e-19)
(1.0835 0.0175069 -3.76716e-19)
(1.08755 0.0177312 3.81412e-19)
(1.09172 0.0178996 1.31106e-17)
(1.096 0.0180137 -1.32421e-17)
(1.10035 0.0180757 0)
(1.10478 0.0180882 2.53493e-17)
(1.10925 0.0180539 1.27604e-17)
(1.11375 0.0179758 6.01481e-18)
(1.11827 0.0178593 -6.24243e-18)
(1.12277 0.0177182 2.01997e-19)
(1.08307 0.014749 -1.24092e-17)
(1.08709 0.014939 1.25703e-17)
(1.09123 0.0150822 -1.23293e-17)
(1.09547 0.0151796 2.41378e-17)
(1.09979 0.0152334 7.85947e-19)
(1.10417 0.0152457 -2.53576e-17)
(1.1086 0.0152189 6.38412e-18)
(1.11306 0.0151553 -6.82262e-18)
(1.11753 0.0150595 6.85367e-18)
(1.12199 0.0149431 0)
(1.08272 0.0120229 1.23869e-17)
(1.08671 0.0121783 -3.80431e-19)
(1.09082 0.0122958 -7.69944e-19)
(1.09503 0.0123762 -1.1675e-17)
(1.09932 0.0124212 0)
(1.10367 0.0124327 1.2683e-17)
(1.10807 0.0124125 -7.18658e-18)
(1.11249 0.0123624 -5.22177e-18)
(1.11692 0.0122863 -6.05366e-19)
(1.12134 0.0121934 2.02472e-19)
(1.08243 0.00932277 -1.19899e-17)
(1.08641 0.00944341 -2.08926e-24)
(1.0905 0.00953486 7.69311e-19)
(1.09468 0.00959791 -1.55605e-18)
(1.09895 0.0096338 1.57186e-18)
(1.10327 0.00964389 -7.1365e-18)
(1.10764 0.00962949 5.59302e-18)
(1.11204 0.00959214 3.61817e-18)
(1.11644 0.00953463 3.83799e-18)
(1.12083 0.00946417 -2.0271e-19)
(1.08222 0.00664297 1.15944e-17)
(1.08618 0.00672853 -1.17628e-17)
(1.09026 0.00679375 0)
(1.09443 0.00683911 0)
(1.09867 0.00686541 7.85918e-19)
(1.10298 0.00687353 5.55243e-18)
(1.10732 0.00686437 -6.39597e-18)
(1.11169 0.00683897 2.81654e-18)
(1.11607 0.00679928 -3.03315e-18)
(1.12044 0.00675036 2.02949e-19)
(1.08208 0.00397771 3.73339e-19)
(1.08604 0.00402785 -3.78959e-19)
(1.0901 0.00406646 3.0722e-18)
(1.09426 0.00409368 -7.77409e-19)
(1.09849 0.00410988 3.14365e-18)
(1.10278 0.0041155 -2.38039e-18)
(1.10711 0.00411103 0)
(1.11147 0.00409702 -4.02708e-19)
(1.11583 0.00407459 4.04844e-19)
(1.12018 0.00404668 -8.12749e-19)
(1.08201 0.00132295 -3.73697e-19)
(1.08596 0.00133852 3.79548e-19)
(1.09002 0.00135078 -3.84832e-18)
(1.09417 0.00135967 7.79441e-19)
(1.0984 0.00136523 -1.57664e-18)
(1.10268 0.00136758 1.59243e-18)
(1.107 0.00136681 0)
(1.11135 0.00136307 -4.0436e-19)
(1.11571 0.00135668 2.033e-19)
(1.12005 0.00134853 1.0205e-18)
(1.80472 0.0371259 0)
(1.10285 0.0104046 0)
(0.971129 0.0180828 0)
(1.03324 0.037171 0)
(1.04942 0.0466765 0)
(1.04343 0.0537792 0)
(1.04022 0.0624688 0)
(1.03924 0.072015 0)
(1.03805 0.0819608 0)
(1.03657 0.092508 0)
(1.03512 0.103856 0)
(1.03384 0.116115 0)
(1.03282 0.129389 0)
(1.03221 0.143791 0)
(1.03219 0.159429 0)
(1.03296 0.176391 0)
(1.03479 0.194717 0)
(1.03804 0.214338 0)
(1.04324 0.234917 0)
(1.05003 0.255113 0)
(1.81195 0.0243029 0)
(1.08848 0.0148304 0)
(0.973468 0.0223728 0)
(1.0379 0.0372747 0)
(1.05043 0.0466633 0)
(1.0442 0.0544958 0)
(1.04195 0.0633701 0)
(1.04155 0.0729087 0)
(1.04084 0.0828483 0)
(1.03996 0.0933484 0)
(1.03922 0.104567 0)
(1.03872 0.116599 0)
(1.03857 0.129535 0)
(1.03891 0.143462 0)
(1.03991 0.158459 0)
(1.0418 0.174579 0)
(1.04483 0.191812 0)
(1.04936 0.209997 0)
(1.05579 0.228577 0)
(1.06328 0.245976 0)
(1.8164 0.0151239 0)
(1.08102 0.0183613 0)
(0.972485 0.0257312 0)
(1.03898 0.0370448 0)
(1.05056 0.0463516 0)
(1.04458 0.0548547 0)
(1.04309 0.0638645 0)
(1.04328 0.073349 0)
(1.0431 0.0832364 0)
(1.04285 0.0936411 0)
(1.04279 0.104678 0)
(1.04303 0.11643 0)
(1.04366 0.12897 0)
(1.04484 0.142364 0)
(1.04674 0.156663 0)
(1.04955 0.171884 0)
(1.05351 0.187979 0)
(1.05893 0.204741 0)
(1.06613 0.221572 0)
(1.07435 0.237012 0)
(1.82009 0.011051 0)
(1.07729 0.0188271 0)
(0.970841 0.0265872 0)
(1.03882 0.0365765 0)
(1.05034 0.0459319 0)
(1.04467 0.0548084 0)
(1.04378 0.0639146 0)
(1.04454 0.073372 0)
(1.04492 0.0831992 0)
(1.04526 0.0934846 0)
(1.04585 0.104319 0)
(1.04677 0.115773 0)
(1.04812 0.127905 0)
(1.05005 0.140764 0)
(1.05271 0.154378 0)
(1.05629 0.16874 0)
(1.061 0.183778 0)
(1.06707 0.199279 0)
(1.07478 0.214677 0)
(1.08353 0.228594 0)
(1.82352 0.00927333 0)
(1.07544 0.0183979 0)
(0.969542 0.0264942 0)
(1.03846 0.0359883 0)
(1.05009 0.0453256 0)
(1.04466 0.0543692 0)
(1.04424 0.0635299 0)
(1.04549 0.0729559 0)
(1.04639 0.0826997 0)
(1.04728 0.0928362 0)
(1.04845 0.103441 0)
(1.04998 0.114573 0)
(1.05197 0.126279 0)
(1.05455 0.138593 0)
(1.05786 0.151525 0)
(1.06208 0.165054 0)
(1.06737 0.179094 0)
(1.07394 0.193437 0)
(1.082 0.207557 0)
(1.09108 0.220154 0)
(1.82688 0.00843895 0)
(1.07465 0.0179294 0)
(0.968696 0.0261377 0)
(1.03821 0.0353277 0)