/*--------------------------------*- C++ -*----------------------------------*\
  =========                 |
  \\      /  F ield         | OpenFOAM: The Open Source CFD Toolbox
   \\    /   O peration     | Website:  https://openfoam.org
    \\  /    A nd           | Version:  6
     \\/     M anipulation  |
\*---------------------------------------------------------------------------*/
FoamFile
{
    version     2.0;
    format      ascii;
    class       surfaceScalarField;
    location    "0.55";
    object      phi;
}
// * * * * * * * * * * * * * * * * * * * * * * * * * * * * * * * * * * * * * //

dimensions      [0 3 -1 0 0 0 0];

internalField   nonuniform List<scalar> 
11030
(
0.000114571
-3.02609e-08
0.000114692
-1.21532e-07
0.00011469
2.1409e-09
0.000114555
1.35065e-07
0.000114374
1.81446e-07
0.000114145
2.28092e-07
0.000113845
3.00726e-07
0.000113459
3.85797e-07
0.000112981
4.77646e-07
0.000112403
5.78602e-07
0.000111711
6.9119e-07
0.000110894
8.17079e-07
0.000109936
9.58104e-07
0.00010882
1.11656e-06
0.000107525
1.29504e-06
0.000106029
1.49607e-06
0.000104307
1.72143e-06
0.000102337
1.97054e-06
0.000100099
2.23738e-06
2.50106e-06
9.75982e-05
0.000114775
-2.65971e-07
0.000114731
-7.7792e-08
0.00011458
1.52591e-07
0.000114412
3.03599e-07
0.0001142
3.93815e-07
0.00011392
5.07547e-07
0.000113565
6.56238e-07
0.000113126
8.24313e-07
0.000112596
1.00815e-06
0.000111962
1.21175e-06
0.000111215
1.43891e-06
0.000110339
1.69282e-06
0.00010932
1.97725e-06
0.00010814
2.29675e-06
0.000106778
2.65638e-06
0.000105213
3.06109e-06
0.00010342
3.51428e-06
0.000101376
4.01465e-06
9.90635e-05
4.55012e-06
5.08336e-06
9.64812e-05
0.00011463
-3.71262e-07
0.000114609
-5.71812e-08
0.000114462
3.00445e-07
0.000114249
5.16642e-07
0.000113986
6.56642e-07
0.000113658
8.35741e-07
0.000113252
1.06219e-06
0.00011276
1.31562e-06
0.000112175
1.59315e-06
0.000111486
1.90069e-06
0.000110682
2.24351e-06
0.000109748
2.62627e-06
0.000108671
3.05455e-06
0.000107433
3.53507e-06
0.000106014
4.07526e-06
0.000104393
4.68234e-06
0.000102546
5.3613e-06
0.00010045
6.11031e-06
9.80881e-05
6.91192e-06
7.71528e-06
9.54561e-05
0.00011455
-4.11651e-07
0.000114479
1.38357e-08
0.000114298
4.81882e-07
0.000114046
7.68049e-07
0.000113739
9.63787e-07
0.000113364
1.21119e-06
0.000112908
1.51788e-06
0.000112365
1.85895e-06
0.000111726
2.23183e-06
0.000110982
2.64423e-06
0.000110123
3.10285e-06
0.000109136
3.61371e-06
0.000108006
4.1841e-06
0.000106718
4.82272e-06
0.000105254
5.53913e-06
0.000103594
6.34266e-06
0.000101716
7.23978e-06
9.95978e-05
8.2282e-06
9.72242e-05
9.28557e-06
1.03501e-05
9.45894e-05
0.000114468
-3.84958e-07
0.000114337
1.45228e-07
0.000114112
7.07021e-07
0.000113819
1.06073e-06
0.000113467
1.31543e-06
0.000113044
1.63435e-06
0.000112538
2.0239e-06
0.000111942
2.45462e-06
0.00011125
2.924e-06
0.000110453
3.44132e-06
0.000109542
4.01452e-06
0.000108504
4.65086e-06
0.000107329
5.35909e-06
0.000106002
6.14965e-06
0.000104508
7.03392e-06
0.000102827
8.02295e-06
0.000100943
9.12448e-06
9.88352e-05
1.03357e-05
9.6491e-05
1.16297e-05
1.29364e-05
9.39047e-05
0.000114376
-2.81319e-07
0.00011418
3.41688e-07
0.000113911
9.75809e-07
0.000113577
1.39473e-06
0.00011318
1.71303e-06
0.000112706
2.10764e-06
0.000112147
2.58296e-06
0.000111497
3.10507e-06
0.000110749
3.67134e-06
0.000109898
4.2924e-06
0.000108936
4.97729e-06
0.000107852
5.7343e-06
0.000106638
6.5734e-06
0.000105281
7.5064e-06
0.000103769
8.54608e-06
0.000102087
9.70478e-06
0.00010022
1.09911e-05
9.81545e-05
1.24016e-05
9.58787e-05
1.39056e-05
1.54274e-05
9.33877e-05
0.000114262
-7.86103e-08
0.000114
6.0343e-07
0.000113702
1.2742e-06
0.000113331
1.76553e-06
0.000112884
2.16026e-06
0.000112355
2.63665e-06
0.000111737
3.20061e-06
0.000111027
3.81532e-06
0.000110221
4.47773e-06
0.000109313
5.19972e-06
0.000108299
5.9914e-06
0.000107172
6.86193e-06
0.000105923
7.82223e-06
0.000104544
8.88503e-06
0.000103026
1.0064e-05
0.000101359
1.13721e-05
9.95314e-05
1.28185e-05
9.75338e-05
1.43993e-05
9.53584e-05
1.6081e-05
1.77866e-05
9.29991e-05
0.000114092
2.78522e-07
0.000113777
9.18021e-07
0.000113491
1.56e-06
0.000113091
2.16584e-06
0.000112584
2.66763e-06
0.000111989
3.23173e-06
0.000111304
3.88541e-06
0.000110526
4.59268e-06
0.000109655
5.34878e-06
0.000108688
6.16683e-06
0.000107621
7.05825e-06
0.00010645
8.03295e-06
0.00010517
9.1024e-06
0.000103776
1.02797e-05
0.000102261
1.15787e-05
0.000100621
1.30124e-05
9.88491e-05
1.459e-05
9.69407e-05
1.63077e-05
9.48904e-05
1.81313e-05
1.99912e-05
9.26858e-05
0.000113735
9.77966e-07
0.000113488
1.16565e-06
0.00011331
1.73759e-06
0.000112866
2.61046e-06
0.000112271
3.26204e-06
0.000111596
3.90734e-06
0.000110833
4.64751e-06
0.00010998
5.44569e-06
0.000109038
6.29107e-06
0.000108006
7.19846e-06
0.000106884
8.1811e-06
0.000105667
9.24938e-06
0.000104355
1.04147e-05
0.000102945
1.16898e-05
0.000101436
1.30878e-05
9.98274e-05
1.46207e-05
9.81205e-05
1.6297e-05
9.63143e-05
1.81139e-05
9.44075e-05
2.00381e-05
2.20036e-05
9.23951e-05
0.000113096
2.32482e-06
0.000113327
9.34809e-07
0.000113231
1.83297e-06
0.000112644
3.19769e-06
0.000111933
3.97292e-06
0.000111165
4.67487e-06
0.000110317
5.49605e-06
0.000109383
6.37993e-06
0.000108366
7.30769e-06
0.000107268
8.29671e-06
0.000106087
9.36187e-06
0.000104823
1.05135e-05
0.000103476
1.17622e-05
0.000102046
1.31194e-05
0.000100538
1.45961e-05
9.89566e-05
1.62017e-05
9.73121e-05
1.79414e-05
9.56139e-05
1.98121e-05
9.3853e-05
2.1799e-05
9.20217e-05
2.38349e-05
8.73073e-05
1.0291e-05
7.68755e-05
1.04317e-05
6.62899e-05
1.05856e-05
5.55472e-05
1.07428e-05
4.46643e-05
1.08828e-05
3.37175e-05
1.09468e-05
2.29224e-05
1.07952e-05
1.27907e-05
1.01317e-05
4.39e-06
8.4007e-06
4.39e-06
8.62852e-05
2.0487e-05
7.59413e-05
2.07756e-05
6.54453e-05
2.10817e-05
5.47966e-05
2.13915e-05
4.40164e-05
2.1663e-05
3.31858e-05
2.17774e-05
2.25228e-05
2.14581e-05
1.25368e-05
2.01177e-05
4.32968e-06
1.66079e-05
8.71967e-06
8.53577e-05
3.05854e-05
7.51048e-05
3.10285e-05
6.4699e-05
3.14875e-05
5.41422e-05
3.19482e-05
4.34581e-05
3.23471e-05
3.27316e-05
3.25039e-05
2.21852e-05
3.20045e-05
1.23317e-05
2.99711e-05
4.24727e-06
2.46923e-05
1.29669e-05
8.45757e-05
4.05991e-05
7.44033e-05
4.12008e-05
6.40777e-05
4.18131e-05
5.36017e-05
4.24243e-05
4.29997e-05
4.29491e-05
3.23592e-05
4.31444e-05
2.1907e-05
4.24567e-05
1.21586e-05
3.97195e-05
4.17896e-06
3.26719e-05
1.71459e-05
8.39595e-05
5.05443e-05
7.38513e-05
5.13091e-05
6.35901e-05
5.20744e-05
5.31776e-05
5.28368e-05
4.26381e-05
5.34886e-05
3.20613e-05
5.37212e-05
2.16786e-05
5.28394e-05
1.20111e-05
4.93871e-05
4.11844e-06
4.05646e-05
2.12643e-05
8.34943e-05
6.04376e-05
7.34328e-05
6.13705e-05
6.32183e-05
6.22889e-05
5.28498e-05
6.32052e-05
4.2351e-05
6.39873e-05
3.18146e-05
6.42577e-05
2.14786e-05
6.31753e-05
1.18729e-05
5.89928e-05
4.05715e-06
4.83803e-05
2.53215e-05
8.31393e-05
7.02975e-05
7.31065e-05
7.14034e-05
6.29204e-05
7.2475e-05
5.25755e-05
7.35502e-05
4.20952e-05
7.44676e-05
3.15775e-05
7.47754e-05
2.12709e-05
7.34819e-05
1.17178e-05
6.85459e-05
3.98198e-06
5.61162e-05
2.93035e-05
8.28316e-05
8.01516e-05
7.28051e-05
8.14298e-05
6.26282e-05
8.26519e-05
5.22853e-05
8.38931e-05
4.18033e-05
8.49496e-05
3.12888e-05
8.52899e-05
2.10051e-05
8.37656e-05
1.15112e-05
7.80398e-05
3.87576e-06
6.37517e-05
3.31792e-05
8.24683e-05
9.00784e-05
7.24186e-05
9.14795e-05
6.22285e-05
9.2842e-05
5.18689e-05
9.42527e-05
4.13759e-05
9.54426e-05
3.08661e-05
9.57997e-05
2.06189e-05
9.40127e-05
1.12094e-05
8.74493e-05
3.71419e-06
7.12469e-05
3.68934e-05
8.18065e-05
0.000100294
7.1741e-05
0.000101545
6.15207e-05
0.000103062
5.11501e-05
0.000104623
4.06707e-05
0.000105922
3.0202e-05
0.000106268
2.00341e-05
0.000104181
1.07507e-05
9.67327e-05
3.44731e-06
7.85503e-05
4.03407e-05
3.10766e-05
0.000105679
-3.64622e-05
2.57235e-05
0.000106898
2.04621e-05
0.000108324
1.5343e-05
0.000109742
1.05145e-05
0.000110751
6.23156e-06
0.000110551
2.84113e-06
0.000107571
6.91238e-07
9.88826e-05
-9.53527e-08
7.93369e-05
4.02454e-05
2.51413e-05
0.000110524
-2.99864e-05
2.02978e-05
0.000111742
1.55569e-05
0.000113065
1.10289e-05
0.00011427
6.87875e-06
0.000114901
3.35891e-06
0.000114071
7.86854e-07
0.000110143
-5.49003e-07
0.000100218
-6.11761e-07
7.93996e-05
3.96336e-05
1.92479e-05
0.000114858
-2.35811e-05
1.49282e-05
0.000116061
1.07443e-05
0.000117249
6.83228e-06
0.000118182
3.37802e-06
0.000118355
6.33295e-07
0.000116816
-1.11374e-06
0.00011189
-1.63975e-06
0.000100744
-1.012e-06
7.87719e-05
3.86216e-05
1.34511e-05
0.000118682
-1.72758e-05
9.67392e-06
0.000119838
6.07047e-06
0.000120852
2.79639e-06
0.000121457
5.28097e-08
0.000121099
-1.91197e-06
0.000118781
-2.84218e-06
0.00011282
-2.58616e-06
0.000100488
-1.32908e-06
7.75148e-05
3.72925e-05
7.79165e-06
0.000121996
-1.11055e-05
4.56752e-06
0.000123063
1.56314e-06
0.000123856
-1.05344e-06
0.000124073
-3.07334e-06
0.000123118
-4.25823e-06
0.000119966
-4.39091e-06
0.000112953
-3.39688e-06
9.94944e-05
-1.57867e-06
7.56966e-05
3.57139e-05
2.29765e-06
0.000124796
-5.09759e-06
-3.65552e-07
0.000125726
-2.75659e-06
0.000126247
-4.70036e-06
0.000126017
-5.98777e-06
0.000124406
-6.39804e-06
0.000120376
-5.75973e-06
0.000112315
-4.07929e-06
9.7814e-05
-1.76946e-06
7.33868e-05
3.39444e-05
-3.01227e-06
0.000127078
7.30336e-07
-5.107e-06
0.00012782
-6.87291e-06
0.000128013
-8.13227e-06
0.000127276
-8.68286e-06
0.000124956
-8.32924e-06
0.000120022
-6.95251e-06
0.000110938
-4.6419e-06
9.55033e-05
-1.90966e-06
7.06545e-05
3.20347e-05
-8.12812e-06
0.000128836
6.36969e-06
-9.64569e-06
0.000129338
-1.07751e-05
0.000129143
-1.13406e-05
0.000127842
-1.11533e-05
0.000124769
-1.00512e-05
0.00011892
-7.97393e-06
0.000108861
-5.09316e-06
9.26226e-05
-2.00658e-06
6.75679e-05
3.00282e-05
-1.30454e-05
0.000130064
1.18177e-05
-1.39739e-05
0.000130267
-1.44528e-05
0.000129622
-1.43134e-05
0.000127702
-1.33884e-05
0.000123844
-1.15575e-05
0.000117089
-8.82486e-06
0.000106128
-5.44078e-06
8.92385e-05
-2.068e-06
6.41952e-05
2.79602e-05
-1.7756e-05
1.70805e-05
0.00013074
-1.80676e-05
0.000130578
-1.78693e-05
0.000129423
-1.70083e-05
0.000126841
-1.53489e-05
0.000122185
-1.28221e-05
0.000114562
-9.49897e-06
0.000102805
-5.69616e-06
8.54357e-05
-2.1109e-06
6.06099e-05
2.58493e-05
8.09294e-05
-3.70824e-05
-8.03092e-05
8.17683e-05
-3.08254e-05
8.27986e-05
-2.46114e-05
8.39646e-05
-1.84418e-05
8.52242e-05
-1.2365e-05
8.65293e-05
-6.40275e-06
8.78292e-05
-5.69604e-07
8.90739e-05
5.125e-06
9.02165e-05
1.06752e-05
1.60939e-05
9.1203e-05
8.16244e-05
-3.75278e-05
-8.1179e-05
8.22643e-05
-3.14653e-05
8.30956e-05
-2.54427e-05
8.40751e-05
-1.94212e-05
8.51644e-05
-1.34544e-05
8.63228e-05
-7.56111e-06
8.75069e-05
-1.7537e-06
8.86739e-05
3.95798e-06
8.97828e-05
9.56626e-06
1.50878e-05
9.07889e-05
8.22196e-05
-3.77749e-05
-8.19725e-05
8.26776e-05
-3.19234e-05
8.33234e-05
-2.60885e-05
8.41249e-05
-2.02227e-05
8.50489e-05
-1.43784e-05
8.6061e-05
-8.57314e-06
8.71251e-05
-2.81781e-06
8.82055e-05
2.87753e-06
8.92676e-05
8.50423e-06
1.408e-05
9.02755e-05
8.27386e-05
-3.78766e-05
-8.26369e-05
8.30378e-05
-3.22226e-05
8.35157e-05
-2.65664e-05
8.415e-05
-2.0857e-05
8.49146e-05
-1.5143e-05
8.5782e-05
-9.44048e-06
8.67233e-05
-3.75911e-06
8.77096e-05
1.89121e-06
8.87122e-05
7.50159e-06
1.30892e-05
8.97029e-05
8.31732e-05
-3.78625e-05
-8.31873e-05
8.33385e-05
-3.2388e-05
8.36695e-05
-2.68973e-05
8.4153e-05
-2.13405e-05
8.477e-05
-1.57601e-05
8.54999e-05
-1.01703e-05
8.63205e-05
-4.57977e-06
8.72095e-05
1.00228e-06
8.81437e-05
6.56735e-06
1.21318e-05
8.91011e-05
8.35227e-05
-3.77464e-05
-8.36387e-05
8.35723e-05
-3.24376e-05
8.37762e-05
-2.71012e-05
8.41273e-05
-2.16916e-05
8.46124e-05
-1.62452e-05
8.52166e-05
-1.07745e-05
8.59237e-05
-5.2869e-06
8.67169e-05
2.09159e-07
8.75783e-05
5.70592e-06
1.1219e-05
8.84911e-05
8.37938e-05
-3.75385e-05
-8.40017e-05
8.37415e-05
-3.23853e-05
8.3835e-05
-2.71948e-05
8.40709e-05
-2.19275e-05
8.444e-05
-1.66143e-05
8.49319e-05
-1.12664e-05
8.55351e-05
-5.89005e-06
8.62373e-05
-4.93021e-07
8.70253e-05
4.91787e-06
1.03576e-05
8.78867e-05
8.39951e-05
-3.72473e-05
-8.42862e-05
8.38523e-05
-3.22425e-05
8.38495e-05
-2.7192e-05
8.3985e-05
-2.2063e-05
8.42527e-05
-1.68821e-05
8.46453e-05
-1.1659e-05
8.51548e-05
-6.39954e-06
8.57726e-05
-1.11086e-06
8.64894e-05
4.20113e-06
9.55076e-06
8.72962e-05
8.41353e-05
-3.68808e-05
-8.45018e-05
8.39119e-05
-3.20191e-05
8.38244e-05
-2.71045e-05
8.38722e-05
-2.21109e-05
8.40513e-05
-1.70611e-05
8.43564e-05
-1.19641e-05
8.47823e-05
-6.82543e-06
8.53231e-05
-1.65168e-06
8.59723e-05
3.55189e-06
8.79901e-06
8.67241e-05
8.42226e-05
-3.64461e-05
-8.46573e-05
8.39271e-05
-3.17236e-05
8.37648e-05
-2.69422e-05
8.37357e-05
-2.20818e-05
8.3837e-05
-1.71624e-05
8.40652e-05
-1.21923e-05
8.44168e-05
-7.17704e-06
8.4888e-05
-2.12286e-06
8.54744e-05
2.96547e-06
8.10098e-06
8.61724e-05
8.42646e-05
-3.59498e-05
-8.47609e-05
8.39046e-05
-3.13636e-05
8.36759e-05
-2.67135e-05
8.35789e-05
-2.19849e-05
8.36118e-05
-1.71953e-05
8.37723e-05
-1.23527e-05
8.40579e-05
-7.46269e-06
8.44664e-05
-2.53135e-06
8.4995e-05
2.43687e-06
7.45419e-06
8.56418e-05
8.42682e-05
-3.53982e-05
-8.48198e-05
8.38504e-05
-3.09458e-05
8.35626e-05
-2.64257e-05
8.34055e-05
-2.18278e-05
8.3378e-05
-1.71677e-05
8.34784e-05
-1.24531e-05
8.37054e-05
-7.68969e-06
8.40576e-05
-2.88352e-06
8.45333e-05
1.96113e-06
6.85557e-06
8.51319e-05
8.42394e-05
-3.47967e-05
-8.48408e-05
8.37699e-05
-3.04763e-05
8.34294e-05
-2.60852e-05
8.32189e-05
-2.16173e-05
8.31376e-05
-1.70865e-05
8.31847e-05
-1.25002e-05
8.33594e-05
-7.86436e-06
8.36609e-05
-3.18503e-06
8.40885e-05
1.53357e-06
6.3018e-06
8.46422e-05
8.41837e-05
-3.41505e-05
-8.48298e-05
8.36678e-05
-2.99605e-05
8.32803e-05
-2.56976e-05
8.3022e-05
-2.13591e-05
8.28929e-05
-1.69574e-05
8.28924e-05
-1.24997e-05
8.30202e-05
-7.99217e-06
8.32761e-05
-3.44089e-06
8.36597e-05
1.1499e-06
5.78959e-06
8.41719e-05
8.41058e-05
-3.34643e-05
-8.47921e-05
8.35484e-05
-2.94031e-05
8.31187e-05
-2.52679e-05
8.28178e-05
-2.10582e-05
8.26458e-05
-1.67854e-05
8.26026e-05
-1.24566e-05
8.26883e-05
-8.07786e-06
8.29029e-05
-3.6555e-06
8.32466e-05
8.06244e-07
5.31578e-06
8.37204e-05
8.40099e-05
-3.2742e-05
-8.47322e-05
8.34154e-05
-2.88086e-05
8.29478e-05
-2.48003e-05
8.26086e-05
-2.0719e-05
8.23981e-05
-1.65749e-05
8.23166e-05
-1.2375e-05
8.23642e-05
-8.12552e-06
8.25414e-05
-3.83269e-06
8.28485e-05
4.99134e-07
4.87741e-06
8.32869e-05
8.38998e-05
-3.19875e-05
-8.46543e-05
8.32718e-05
-2.81806e-05
8.27703e-05
-2.42988e-05
8.23966e-05
-2.03453e-05
8.21514e-05
-1.63297e-05
8.20352e-05
-1.22588e-05
8.20485e-05
-8.13874e-06
8.21916e-05
-3.97586e-06
8.24653e-05
2.25473e-07
4.47178e-06
8.28709e-05
8.37784e-05
-3.1204e-05
-8.45619e-05
8.31205e-05
-2.75227e-05
8.25884e-05
-2.37667e-05
8.21837e-05
-1.99406e-05
8.19072e-05
-1.60532e-05
8.17596e-05
-1.21112e-05
8.17415e-05
-8.12066e-06
8.18536e-05
-4.08796e-06
8.20966e-05
-1.74991e-08
4.09639e-06
8.2472e-05
8.36487e-05
-3.03946e-05
-8.44582e-05
8.29638e-05
-2.68378e-05
8.24042e-05
-2.32071e-05
8.19714e-05
-1.95078e-05
8.16666e-05
-1.57484e-05
8.14904e-05
-1.1935e-05
8.14439e-05
-8.07407e-06
8.15275e-05
-4.17164e-06
8.17423e-05
-2.32249e-07
3.749e-06
8.20897e-05
8.35131e-05
-2.95618e-05
-8.43458e-05
8.28039e-05
-2.61286e-05
8.22193e-05
-2.26225e-05
8.17612e-05
-1.90497e-05
8.14306e-05
-1.54178e-05
8.12285e-05
-1.17329e-05
8.11559e-05
-8.00141e-06
8.12135e-05
-4.22926e-06
8.14022e-05
-4.20992e-07
3.42755e-06
8.17237e-05
8.33734e-05
-2.8708e-05
-8.42272e-05
8.26423e-05
-2.53975e-05
8.20353e-05
-2.20155e-05
8.15542e-05
-1.85686e-05
8.12001e-05
-1.50637e-05
8.09744e-05
-1.15072e-05
8.08778e-05
-7.90488e-06
8.09115e-05
-4.26291e-06
8.10762e-05
-5.85722e-07
3.13017e-06
8.13736e-05
8.32316e-05
-2.78353e-05
-8.41043e-05
8.24807e-05
-2.46466e-05
8.18534e-05
-2.13882e-05
8.13513e-05
-1.80665e-05
8.09759e-05
-1.46884e-05
8.07285e-05
-1.12597e-05
8.06101e-05
-7.78645e-06
8.06216e-05
-4.27448e-06
8.07641e-05
-7.28246e-07
2.85515e-06
8.10392e-05
8.30891e-05
-2.69455e-05
-8.39789e-05
8.23204e-05
-2.38779e-05
8.16745e-05
-2.07423e-05
8.11534e-05
-1.75454e-05
8.07585e-05
-1.42935e-05
8.04913e-05
-1.09924e-05
8.03527e-05
-7.64789e-06
8.03439e-05
-4.26568e-06
8.04659e-05
-8.50206e-07
2.60091e-06
8.07201e-05
8.29471e-05
-2.60403e-05
-8.38524e-05
8.21622e-05
-2.3093e-05
8.14996e-05
-2.00797e-05
8.09611e-05
-1.70069e-05
8.05485e-05
-1.38808e-05
8.0263e-05
-1.07069e-05
8.01059e-05
-7.49079e-06
8.00783e-05
-4.23808e-06
8.01812e-05
-9.53102e-07
2.36602e-06
8.04161e-05
8.28069e-05
-2.51212e-05
-8.3726e-05
8.20073e-05
-2.22934e-05
8.13294e-05
-1.94018e-05
8.07751e-05
-1.64527e-05
8.03461e-05
-1.34519e-05
8.00439e-05
-1.04047e-05
7.98697e-05
-7.31662e-06
7.98247e-05
-4.19307e-06
7.99099e-05
-1.03831e-06
2.14914e-06
8.01268e-05
8.26691e-05
-2.41894e-05
-8.36009e-05
8.18562e-05
-2.14805e-05
8.11644e-05
-1.87099e-05
8.05956e-05
-1.58839e-05
8.01517e-05
-1.30079e-05
7.98341e-05
-1.00871e-05
7.96442e-05
-7.12669e-06
7.95831e-05
-4.13197e-06
7.96518e-05
-1.1071e-06
1.94904e-06
7.98519e-05
8.25347e-05
-2.32462e-05
-8.3478e-05
8.17097e-05
-2.06554e-05
8.10051e-05
-1.80054e-05
8.04232e-05
-1.53019e-05
7.99655e-05
-1.25503e-05
7.96337e-05
-9.75533e-06
7.94293e-05
-6.92221e-06
7.93532e-05
-4.05596e-06
7.94068e-05
-1.16063e-06
1.76455e-06
7.95913e-05
8.24042e-05
-2.22926e-05
-8.33579e-05
8.15682e-05
-1.98194e-05
8.0852e-05
-1.72892e-05
8.02579e-05
-1.47078e-05
7.97876e-05
-1.208e-05
7.94428e-05
-9.41053e-06
7.92249e-05
-6.70428e-06
7.91351e-05
-3.96613e-06
7.91745e-05
-1.19999e-06
1.59462e-06
7.93444e-05
8.22782e-05
-2.13295e-05
-8.32412e-05
8.14321e-05
-1.89733e-05
8.07053e-05
-1.65625e-05
8.01001e-05
-1.41026e-05
7.96183e-05
-1.15982e-05
7.92614e-05
-9.05371e-06
7.90311e-05
-6.47394e-06
7.89285e-05
-3.8635e-06
7.89547e-05
-1.22619e-06
1.43825e-06
7.9111e-05
8.2157e-05
-2.03579e-05
-8.31286e-05
8.13017e-05
-1.8118e-05
8.05653e-05
-1.58261e-05
7.99499e-05
-1.34872e-05
7.94574e-05
-1.11057e-05
7.90895e-05
-8.68582e-06
7.88476e-05
-6.23211e-06
7.87332e-05
-3.749e-06
7.87471e-05
-1.24015e-06
1.29449e-06
7.88909e-05
8.20409e-05
-1.93784e-05
-8.30203e-05
8.11773e-05
-1.72544e-05
8.0432e-05
-1.50808e-05
7.98073e-05
-1.28624e-05
7.9305e-05
-1.06034e-05
7.89269e-05
-8.30771e-06
7.86745e-05
-5.97967e-06
7.8549e-05
-3.62352e-06
7.85516e-05
-1.24277e-06
1.16247e-06
7.86836e-05
8.19303e-05
-1.83919e-05
-8.29168e-05
8.10591e-05
-1.63832e-05
8.03057e-05
-1.43274e-05
7.96724e-05
-1.22291e-05
7.91611e-05
-1.00921e-05
7.87736e-05
-7.92018e-06
7.85114e-05
-5.71743e-06
7.83757e-05
-3.48786e-06
7.83678e-05
-1.23484e-06
1.04137e-06
7.84889e-05
8.18253e-05
-1.7399e-05
-8.28183e-05
8.09472e-05
-1.5505e-05
8.01865e-05
-1.35667e-05
7.95453e-05
-1.1588e-05
7.90258e-05
-9.57252e-06
7.86296e-05
-7.52398e-06
7.83583e-05
-5.44613e-06
7.82132e-05
-3.34279e-06
7.81955e-05
-1.21715e-06
9.30403e-07
7.83065e-05
8.17262e-05
-1.64003e-05
-8.27249e-05
8.08417e-05
-1.46206e-05
8.00742e-05
-1.27992e-05
7.94259e-05
-1.09396e-05
7.88988e-05
-9.04537e-06
7.84946e-05
-7.1198e-06
7.82149e-05
-5.16648e-06
7.80612e-05
-3.189e-06
7.80344e-05
-1.19041e-06
8.28838e-07
7.8136e-05
8.16329e-05
-1.53963e-05
-8.26369e-05
8.07427e-05
-1.37305e-05
7.99691e-05
-1.20255e-05
7.93142e-05
-1.02847e-05
7.87801e-05
-8.51126e-06
7.83686e-05
-6.70828e-06
7.80812e-05
-4.87913e-06
7.79194e-05
-3.02719e-06
7.78843e-05
-1.15531e-06
7.35979e-07
7.79772e-05
8.15456e-05
-1.43875e-05
-8.25543e-05
8.06503e-05
-1.28352e-05
7.9871e-05
-1.12463e-05
7.92101e-05
-9.62385e-06
7.86697e-05
-7.97078e-06
7.82514e-05
-6.29003e-06
7.7957e-05
-4.58471e-06
7.77878e-05
-2.85796e-06
7.77449e-05
-1.11247e-06
6.51167e-07
7.78298e-05
8.14643e-05
-1.33745e-05
-8.24773e-05
8.05643e-05
-1.19353e-05
7.978e-05
-1.0462e-05
7.91137e-05
-8.95752e-06
7.85674e-05
-7.42449e-06
7.8143e-05
-5.86562e-06
7.7842e-05
-4.28379e-06
7.7666e-05
-2.68193e-06
7.76161e-05
-1.06253e-06
5.73778e-07
7.76935e-05
8.1389e-05
-1.23577e-05
-8.24058e-05
8.04849e-05
-1.10311e-05
7.9696e-05
-9.67314e-06
7.90247e-05
-8.28625e-06
7.84731e-05
-6.8729e-06
7.80431e-05
-5.43557e-06
7.77362e-05
-3.97692e-06
7.75539e-05
-2.49964e-06
7.74974e-05
-1.00605e-06
5.03217e-07
7.7568e-05
8.13198e-05
-1.13375e-05
-8.234e-05
8.04119e-05
-1.01232e-05
7.96189e-05
-8.88017e-06
7.89432e-05
-7.61052e-06
7.83868e-05
-6.31651e-06
7.79516e-05
-5.0004e-06
7.76393e-05
-3.66462e-06
7.74513e-05
-2.31163e-06
7.73889e-05
-9.4358e-07
4.38914e-07
7.74532e-05
8.12567e-05
-1.03143e-05
-8.22798e-05
8.03455e-05
-9.21202e-06
7.95488e-05
-8.08352e-06
7.88691e-05
-6.93077e-06
7.83083e-05
-5.75578e-06
7.78685e-05
-4.56059e-06
7.75513e-05
-3.34739e-06
7.73581e-05
-2.11842e-06
7.72901e-05
-8.75648e-07
3.80324e-07
7.73487e-05
8.11995e-05
-9.28857e-06
-8.22253e-05
8.02854e-05
-8.2979e-06
7.94855e-05
-7.28362e-06
7.88022e-05
-6.24745e-06
7.82376e-05
-5.19116e-06
7.77936e-05
-4.11658e-06
7.74719e-05
-3.02569e-06
7.72739e-05
-1.92049e-06
7.72011e-05
-8.02759e-07
3.26926e-07
7.72544e-05
8.11484e-05
-8.26063e-06
-8.21763e-05
8.02318e-05
-7.38126e-06
7.9429e-05
-6.48087e-06
7.87425e-05
-5.56096e-06
7.81744e-05
-4.62307e-06
7.77267e-05
-3.66883e-06
7.7401e-05
-2.69998e-06
7.71988e-05
-1.71831e-06
7.71214e-05
-7.25394e-07
2.78214e-07
7.71701e-05
8.11032e-05
-7.23085e-06
-8.2133e-05
8.01844e-05
-6.46246e-06
7.93792e-05
-5.67566e-06
7.869e-05
-4.87169e-06
7.81188e-05
-4.05192e-06
7.76677e-05
-3.21775e-06
7.73384e-05
-2.37069e-06
7.71324e-05
-1.51232e-06
7.70511e-05
-6.44023e-07
2.337e-07
7.70956e-05
8.1064e-05
-6.19959e-06
-8.20952e-05
8.01434e-05
-5.54188e-06
7.93361e-05
-4.86835e-06
7.86444e-05
-4.18004e-06
7.80706e-05
-3.4781e-06
7.76166e-05
-2.76374e-06
7.72841e-05
-2.03825e-06
7.70748e-05
-1.30297e-06
7.69899e-05
-5.591e-07
1.92904e-07
7.70307e-05
8.10306e-05
-5.1672e-06
-8.2063e-05
8.01085e-05
-4.61986e-06
7.92995e-05
-4.0593e-06
7.86058e-05
-3.48637e-06
7.80297e-05
-2.902e-06
7.75732e-05
-2.3072e-06
7.7238e-05
-1.70305e-06
7.70257e-05
-1.09067e-06
7.69377e-05
-4.71073e-07
1.55361e-07
7.69752e-05
8.1003e-05
-4.13402e-06
-8.20361e-05
8.00799e-05
-3.69676e-06
7.92694e-05
-3.24888e-06
7.85741e-05
-2.79103e-06
7.79961e-05
-2.32397e-06
7.75374e-05
-1.84851e-06
7.71998e-05
-1.36551e-06
7.6985e-05
-8.75861e-07
7.68943e-05
-3.80383e-07
1.20604e-07
7.69291e-05
8.09811e-05
-3.10039e-06
-8.20148e-05
8.00573e-05
-2.77291e-06
7.92458e-05
-2.43741e-06
7.85492e-05
-2.09438e-06
7.79696e-05
-1.7444e-06
7.75091e-05
-1.38805e-06
7.71696e-05
-1.02601e-06
7.69527e-05
-6.58951e-07
7.68598e-05
-2.87473e-07
8.81669e-08
7.68923e-05
8.0965e-05
-2.06664e-06
-8.19987e-05
8.00407e-05
-1.84864e-06
7.92285e-05
-1.62523e-06
7.85309e-05
-1.39676e-06
7.79501e-05
-1.16362e-06
7.74883e-05
-9.26216e-07
7.71473e-05
-6.8498e-07
7.69287e-05
-4.40371e-07
7.6834e-05
-1.92792e-07
5.75782e-08
7.68646e-05
8.09545e-05
-1.03309e-06
-8.1988e-05
8.00301e-05
-9.24239e-07
7.92175e-05
-8.12653e-07
7.85193e-05
-6.98515e-07
7.79377e-05
-5.82025e-07
7.74748e-05
-4.63389e-07
7.71327e-05
-3.42826e-07
7.69129e-05
-2.20563e-07
7.68169e-05
-9.68042e-08
2.83562e-08
7.68461e-05
8.09495e-05
-8.19826e-05
8.00253e-05
7.92126e-05
7.85141e-05
7.79321e-05
7.74687e-05
7.71259e-05
7.69053e-05
7.68085e-05
7.68369e-05
7.95593e-05
1.65721e-06
7.91395e-05
1.3546e-06
7.89182e-05
2.05431e-06
7.89379e-05
3.17791e-06
7.89077e-05
4.00312e-06
7.88204e-05
4.76223e-06
7.8722e-05
5.59441e-06
7.86217e-05
6.48024e-06
7.85191e-05
7.41035e-06
7.84184e-05
8.39732e-06
7.8327e-05
9.4533e-06
7.8253e-05
1.05875e-05
7.8206e-05
1.18091e-05
7.81983e-05
1.31272e-05
7.82443e-05
1.45501e-05
7.83621e-05
1.60839e-05
7.85739e-05
1.77296e-05
7.89111e-05
1.9475e-05
7.94386e-05
2.12715e-05
2.29644e-05
7.9433e-05
1.15315e-06
7.91948e-05
1.59287e-06
7.90134e-05
2.23565e-06
7.90076e-05
3.18368e-06
7.89869e-05
4.02389e-06
7.89294e-05
4.81966e-06
7.88652e-05
5.6587e-06
7.88025e-05
6.54293e-06
7.87428e-05
7.46998e-06
7.86911e-05
8.44909e-06
7.86543e-05
9.49004e-06
7.86411e-05
1.06008e-05
7.86613e-05
1.17889e-05
7.87271e-05
1.30613e-05
7.88535e-05
1.44237e-05
7.90585e-05
1.58789e-05
7.93644e-05
1.74237e-05
7.97996e-05
1.90398e-05
8.0399e-05
2.06721e-05
2.21844e-05
7.91794e-05
9.23284e-07
7.91348e-05
1.6375e-06
7.90494e-05
2.32106e-06
7.90431e-05
3.18993e-06
7.90386e-05
4.0284e-06
7.90145e-05
4.84381e-06
7.89859e-05
5.68728e-06
7.89609e-05
6.56794e-06
7.89429e-05
7.48792e-06
7.89374e-05
8.45467e-06
7.89513e-05
9.4761e-06
7.89932e-05
1.05589e-05
7.90729e-05
1.17091e-05
7.92025e-05
1.29317e-05
7.9396e-05
1.42302e-05
7.96701e-05
1.56048e-05
8.00445e-05
1.70493e-05
8.05403e-05
1.8544e-05
8.11777e-05
2.00347e-05
2.13896e-05
7.90792e-05
8.09285e-07
7.90813e-05
1.63539e-06
7.90536e-05
2.3488e-06
7.90635e-05
3.17998e-06
7.90781e-05
4.01386e-06
7.90838e-05
4.83811e-06
7.90888e-05
5.68225e-06
7.90998e-05
6.55697e-06
7.91211e-05
7.46659e-06
7.91584e-05
8.4174e-06
7.92186e-05
9.41588e-06
7.931e-05
1.04675e-05
7.94422e-05
1.15769e-05
7.96264e-05
1.27475e-05
7.98757e-05
1.3981e-05
8.02049e-05
1.52756e-05
8.06305e-05
1.66237e-05
8.11693e-05
1.80051e-05
8.18356e-05
1.93684e-05
2.05883e-05
7.90356e-05
7.52832e-07
7.90536e-05
1.61737e-06
7.90577e-05
2.34473e-06
7.90818e-05
3.15585e-06
7.91131e-05
3.98261e-06
7.91439e-05
4.80727e-06
7.91785e-05
5.64762e-06
7.92221e-05
6.51345e-06
7.9279e-05
7.40961e-06
7.9355e-05
8.34144e-06
7.94567e-05
9.31422e-06
7.95918e-05
1.03323e-05
7.97695e-05
1.13992e-05
8.00001e-05
1.25169e-05
8.02953e-05
1.36858e-05
8.06681e-05
1.49028e-05
8.11324e-05
1.61594e-05
8.17017e-05
1.74359e-05
8.23859e-05
1.86842e-05
1.97869e-05
7.9022e-05
7.22953e-07
7.90454e-05
1.59395e-06
7.90666e-05
2.32351e-06
7.91021e-05
3.12035e-06
7.91475e-05
3.93721e-06
7.91989e-05
4.75589e-06
7.92586e-05
5.58796e-06
7.93304e-05
6.4416e-06
7.94188e-05
7.32129e-06
7.95287e-05
8.23147e-06
7.96666e-05
9.17635e-06
7.98396e-05
1.01593e-05
8.0056e-05
1.11828e-05
8.03253e-05
1.22477e-05
8.06577e-05
1.33533e-05
8.10646e-05
1.44959e-05
8.15574e-05
1.56665e-05
8.21471e-05
1.68462e-05
8.28409e-05
1.79903e-05
1.89891e-05
7.90235e-05
7.04037e-07
7.90492e-05
1.56827e-06
7.90804e-05
2.29234e-06
7.91252e-05
3.07555e-06
7.91825e-05
3.87986e-06
7.92507e-05
4.68775e-06
7.93311e-05
5.50748e-06
7.9427e-05
6.34569e-06
7.95422e-05
7.20613e-06
7.96813e-05
8.09232e-06
7.98501e-05
9.00754e-06
8.00552e-05
9.95428e-06
8.0304e-05
1.0934e-05
8.06048e-05
1.19469e-05
8.09668e-05
1.29914e-05
8.13995e-05
1.40631e-05
8.19127e-05
1.51533e-05
8.2515e-05
1.62439e-05
8.32119e-05
1.72934e-05
1.81993e-05
7.90319e-05
6.88972e-07
7.90596e-05
1.54054e-06
7.90976e-05
2.25435e-06
7.91502e-05
3.02291e-06
7.92177e-05
3.81234e-06
7.92997e-05
4.60583e-06
7.93973e-05
5.40982e-06
7.95133e-05
6.22971e-06
7.9651e-05
7.06842e-06
7.98147e-05
7.92867e-06
8.00093e-05
8.81286e-06
8.0241e-05
9.72267e-06
8.05161e-05
1.06588e-05
8.08422e-05
1.16209e-05
8.1227e-05
1.26066e-05
8.16787e-05
1.36114e-05
8.22054e-05
1.46267e-05
8.2814e-05
1.56353e-05
8.35086e-05
1.65989e-05
1.74216e-05
7.9043e-05
6.74661e-07
7.90732e-05
1.51041e-06
7.91166e-05
2.21097e-06
7.9176e-05
2.96348e-06
7.92523e-05
3.73605e-06
7.93457e-05
4.51241e-06
7.94576e-05
5.29796e-06
7.95901e-05
6.09713e-06
7.97465e-05
6.91209e-06
7.99303e-05
7.74481e-06
8.01462e-05
8.59697e-06
8.03993e-05
9.46956e-06
8.06955e-05
1.03627e-05
8.10411e-05
1.12753e-05
8.14428e-05
1.22048e-05
8.19076e-05
1.31466e-05
8.24421e-05
1.40922e-05
8.30518e-05
1.50255e-05
8.37397e-05
1.59111e-05
1.66595e-05
7.90553e-05
6.59838e-07
7.9088e-05
1.47765e-06
7.9136e-05
2.16299e-06
7.92014e-05
2.89808e-06
7.92853e-05
3.65215e-06
7.93884e-05
4.40935e-06
7.95119e-05
5.17438e-06
7.96581e-05
5.95094e-06
7.98296e-05
6.74058e-06
8.00298e-05
7.54462e-06
8.02627e-05
8.36412e-06
8.05328e-05
9.1995e-06
8.08451e-05
1.00503e-05
8.12052e-05
1.09152e-05
8.16188e-05
1.17912e-05
8.20916e-05
1.26737e-05
8.26292e-05
1.35546e-05
8.32358e-05
1.44189e-05
8.39133e-05
1.52336e-05
1.59155e-05
7.90677e-05
6.44066e-07
7.9103e-05
1.44233e-06
7.9155e-05
2.11101e-06
7.92256e-05
2.82745e-06
7.93161e-05
3.56169e-06
7.94272e-05
4.29819e-06
7.95604e-05
5.04116e-06
7.97177e-05
5.79371e-06
7.99013e-05
6.55689e-06
8.01145e-05
7.33148e-06
8.03606e-05
8.11803e-06
8.06436e-05
8.91649e-06
8.09679e-05
9.72605e-06
8.13381e-05
1.05449e-05
8.17592e-05
1.13702e-05
8.22359e-05
1.21971e-05
8.27725e-05
1.3018e-05
8.33726e-05
1.38189e-05
8.4037e-05
1.45691e-05
1.51917e-05
7.90799e-05
6.27285e-07
7.91175e-05
1.40466e-06
7.9173e-05
2.05555e-06
7.92481e-05
2.75231e-06
7.93442e-05
3.46565e-06
7.9462e-05
4.18032e-06
7.96031e-05
4.90011e-06
7.97691e-05
5.62767e-06
7.99624e-05
6.36363e-06
8.01855e-05
7.10835e-06
8.04416e-05
7.86196e-06
8.0734e-05
8.62404e-06
8.10666e-05
9.39346e-06
8.14433e-05
1.01682e-05
8.18682e-05
1.09453e-05
8.23451e-05
1.17202e-05
8.28776e-05
1.24854e-05
8.34683e-05
1.32281e-05
8.41175e-05
1.392e-05
1.44893e-05
7.90917e-05
6.09587e-07
7.91314e-05
1.36495e-06
7.91898e-05
1.99717e-06
7.92687e-05
2.67338e-06
7.93693e-05
3.36498e-06
7.94927e-05
4.05698e-06
7.964e-05
4.75281e-06
7.98129e-05
5.45474e-06
8.00135e-05
6.16305e-06
8.02441e-05
6.87777e-06
8.05073e-05
7.5987e-06
8.08062e-05
8.32513e-06
8.1144e-05
9.0557e-06
8.15239e-05
9.7883e-06
8.19494e-05
1.05199e-05
8.24237e-05
1.12459e-05
8.29494e-05
1.19597e-05
8.35286e-05
1.2649e-05
8.41609e-05
1.32877e-05
1.38093e-05
7.9103e-05
5.91122e-07
7.91444e-05
1.32357e-06
7.92052e-05
1.93639e-06
7.92872e-05
2.59137e-06
7.93916e-05
3.26058e-06
7.95193e-05
3.92931e-06
7.96714e-05
4.60067e-06
7.98495e-05
5.2766e-06
8.00555e-05
5.95711e-06
8.02913e-05
6.64195e-06
8.05593e-05
7.33067e-06
8.08621e-05
8.02234e-06
8.12024e-05
8.71543e-06
8.15829e-05
9.40777e-06
8.20065e-05
1.00963e-05
8.24756e-05
1.07768e-05
8.29926e-05
1.14427e-05
8.35585e-05
1.2083e-05
8.41728e-05
1.26734e-05
1.31523e-05
7.91139e-05
5.72053e-07
7.91566e-05
1.28085e-06
7.92193e-05
1.87372e-06
7.93037e-05
2.50694e-06
7.9411e-05
3.15328e-06
7.95419e-05
3.79835e-06
7.96977e-05
4.44495e-06
7.98795e-05
5.09475e-06
8.00891e-05
5.74751e-06
8.03283e-05
6.40279e-06
8.0599e-05
7.05992e-06
8.09036e-05
7.71782e-06
8.12441e-05
8.37487e-06
8.1623e-05
9.02885e-06
8.20426e-05
9.67678e-06
8.25047e-05
1.03146e-05
8.30111e-05
1.09363e-05
8.35626e-05
1.15315e-05
8.41582e-05
1.20779e-05
1.25184e-05
7.91243e-05
5.52534e-07
7.9168e-05