/*--------------------------------*- C++ -*----------------------------------*\
  =========                 |
  \\      /  F ield         | OpenFOAM: The Open Source CFD Toolbox
   \\    /   O peration     | Website:  https://openfoam.org
    \\  /    A nd           | Version:  6
     \\/     M anipulation  |
\*---------------------------------------------------------------------------*/
FoamFile
{
    version     2.0;
    format      ascii;
    class       volVectorField;
    location    "1.5";
    object      U;
}
// * * * * * * * * * * * * * * * * * * * * * * * * * * * * * * * * * * * * * //

dimensions      [0 1 -1 0 0 0 0];

internalField   nonuniform List<vector> 
5600
(
(2.35816 0.00803694 3.72969e-19)
(1.31138 0.00895586 -6.41927e-18)
(0.959918 0.00765798 6.4051e-18)
(1.02148 0.00548145 0)
(1.06784 0.00452396 0)
(1.06221 0.00473494 0)
(1.04956 0.00517628 -1.19533e-17)
(1.04168 0.00556082 1.19262e-17)
(1.03497 0.00599596 0)
(1.02733 0.00654956 0)
(1.01872 0.00721828 0)
(1.00928 0.00799795 0)
(0.998876 0.00889939 0)
(0.987348 0.00993914 -2.35333e-17)
(0.974517 0.0111348 2.34806e-17)
(0.960196 0.0125041 -4.68574e-17)
(0.944176 0.0140607 4.67529e-17)
(0.926242 0.0158024 0)
(0.90618 0.0176875 -3.63648e-19)
(0.883817 0.0195777 0)
(2.37628 0.0142726 -3.67771e-19)
(1.3036 0.0183176 6.33056e-18)
(0.959565 0.0177273 -6.31893e-18)
(1.02633 0.0152387 0)
(1.07121 0.014027 0)
(1.06421 0.014402 2.44032e-17)
(1.05138 0.0152937 4.13497e-22)
(1.04356 0.0163131 -7.36472e-19)
(1.03684 0.0175669 1.55242e-22)
(1.0292 0.0191391 -2.34848e-17)
(1.02064 0.0210343 0)
(1.01128 0.0232585 -4.75239e-17)
(1.001 0.025841 4.67041e-17)
(0.989638 0.0288233 0)
(0.977017 0.0322529 0)
(0.96296 0.0361781 0)
(0.947273 0.0406348 0)
(0.929749 0.0456126 -4.62692e-17)
(0.910179 0.0509885 4.65431e-17)
(0.888303 0.0564047 4.5406e-17)
(2.39753 0.0152343 0)
(1.29955 0.0274739 0)
(0.95684 0.0292108 0)
(1.02854 0.025214 0)
(1.074 0.0233111 2.3385e-17)
(1.06665 0.0239774 -2.40801e-17)
(1.054 0.025372 -1.45726e-18)
(1.0465 0.0269804 -7.2756e-19)
(1.04003 0.0290087 2.32478e-17)
(1.03261 0.031575 -2.17626e-17)
(1.02429 0.0346795 -1.44871e-18)
(1.01522 0.0383321 4.70145e-17)
(1.00528 0.0425774 -4.76675e-17)
(0.994319 0.0474794 1.44236e-18)
(0.982186 0.0531115 4.60885e-17)
(0.968725 0.0595487 -9.348e-17)
(0.95376 0.0668466 -1.43669e-18)
(0.937102 0.074986 4.58867e-17)
(0.918551 0.0837641 -1.43188e-18)
(0.897767 0.0926136 -7.1526e-19)
(2.42351 0.0182281 0)
(1.29724 0.0350632 -1.44115e-18)
(0.953141 0.0381939 0)
(1.02963 0.0335382 0)
(1.07642 0.0314807 0)
(1.06925 0.032647 0)
(1.0571 0.0346872 1.43582e-18)
(1.0502 0.0369997 2.43853e-17)
(1.04425 0.0398804 -2.29284e-17)
(1.0373 0.0434859 -1.43163e-18)
(1.02947 0.0478184 2.86046e-18)
(1.02092 0.0528944 0)
(1.01157 0.058775 -4.42508e-17)
(1.00129 0.0655452 4.42072e-17)
(0.989965 0.0733021 4.55892e-17)
(0.977465 0.0821453 -4.55442e-17)
(0.963653 0.0921487 9.24226e-17)
(0.948368 0.103288 -9.09108e-17)
(0.931435 0.115287 1.41912e-18)
(0.912469 0.127395 1.41829e-18)
(2.45377 0.0215244 -5.58952e-18)
(1.29484 0.041437 7.06062e-18)
(0.94884 0.04532 -1.13181e-17)
(1.0306 0.0402389 -1.13109e-17)
(1.07897 0.0382885 2.26149e-17)
(1.07215 0.0400959 2.26035e-17)
(1.06068 0.0428982 -2.2594e-17)
(1.0546 0.0460275 1.41156e-18)
(1.04938 0.049849 1.41097e-18)
(1.04311 0.0545474 4.51324e-17)
(1.03597 0.0601259 -9.02268e-17)
(1.02817 0.0666079 1.40886e-18)
(1.01965 0.0740692 4.64839e-17)
(1.01032 0.0826134 1.40801e-18)
(1.00009 0.0923582 -4.36303e-17)
(0.988913 0.103424 4.78318e-17)
(0.976673 0.115899 1.40621e-18)
(0.963255 0.129755 0)
(0.948531 0.14465 1.40501e-18)
(0.932101 0.15966 1.40479e-18)
(2.48778 0.0246012 5.46965e-18)
(1.29178 0.0467499 -5.52738e-18)
(0.944021 0.0508575 1.3857e-18)
(1.03185 0.0453007 0)
(1.08196 0.0435999 2.21749e-17)
(1.07552 0.0461824 -2.21795e-17)
(1.06486 0.0498588 1.38652e-18)
(1.05973 0.0539068 -4.71517e-17)
(1.05537 0.0587493 -2.77435e-18)
(1.04991 0.0645853 8.8792e-17)
(1.04362 0.0714135 -4.71801e-17)
(1.03673 0.0792615 -1.38794e-18)
(1.02922 0.0882177 -4.71992e-17)
(1.02105 0.0984006 -4.58203e-17)
(1.01221 0.109944 8.7491e-17)
(1.00265 0.122982 8.61196e-17)
(0.992357 0.137616 -9.03032e-17)
(0.981244 0.153812 8.7542e-17)
(0.969245 0.171165 -1.79285e-16)
(0.955972 0.188595 8.75868e-17)
(2.52487 0.0276568 0)
(1.28721 0.0508572 0)
(0.938479 0.0544399 -1.35479e-18)
(1.0336 0.048469 2.16923e-17)
(1.08562 0.0472971 -2.17115e-17)
(1.07953 0.0508482 -1.35803e-18)
(1.06971 0.0555299 -1.35926e-18)
(1.0656 0.0606023 1.36047e-18)
(1.06215 0.0665369 1.36167e-18)
(1.05755 0.0735345 0)
(1.05217 0.0815856 4.50141e-17)
(1.04629 0.0907222 2.22883e-22)
(1.03993 0.101044 -4.23601e-17)
(1.0331 0.11268 -8.61626e-17)
(1.02583 0.125775 1.75213e-16)
(1.01816 0.140474 -8.63128e-17)
(1.01011 0.156883 8.77598e-17)
(1.00166 0.174964 -8.64632e-17)
(0.992793 0.194264 -8.79123e-17)
(0.983157 0.213574 8.66159e-17)
(2.5641 0.0323675 0)
(1.27912 0.0531882 1.31852e-18)
(0.931701 0.0549167 -2.11587e-17)
(1.03619 0.0493925 2.25172e-17)
(1.09021 0.0493932 -2.12218e-17)
(1.08422 0.0541385 2.39129e-17)
(1.0752 0.059976 0)
(1.07209 0.0661933 1.3328e-18)
(1.0695 0.0732732 0)
(1.06574 0.0814156 -1.3371e-18)
(1.06129 0.0906124 4.28565e-17)
(1.05647 0.100904 -4.29255e-17)
(1.05135 0.112402 -8.599e-17)
(1.04598 0.125245 8.47827e-17)
(1.04044 0.139583 0)
(1.03484 0.155565 0)
(1.02926 0.173299 8.65466e-17)
(1.02372 0.19275 2.0132e-22)
(1.01829 0.213439 -8.68257e-17)
(1.01263 0.234095 8.83173e-17)
(2.60466 0.045875 -4.43902e-18)
(1.26237 0.0500925 4.48816e-18)
(0.924013 0.0481427 0)
(1.04126 0.0475406 -1.93796e-18)
(1.09614 0.0503148 -2.0717e-17)
(1.08947 0.0563227 -2.20644e-17)
(1.08115 0.0634479 8.32641e-17)
(1.07896 0.0709809 -4.30358e-17)
(1.07709 0.0792505 -4.18315e-17)
(1.07408 0.0884796 4.3242e-17)
(1.07053 0.0987057 -8.40646e-17)
(1.06679 0.109991 1.68533e-16)
(1.06297 0.122456 1.90194e-22)
(1.05913 0.136244 -8.46726e-17)
(1.05543 0.151502 0)
(1.05202 0.168374 8.50818e-17)
(1.04904 0.186967 -1.70575e-16)
(1.04659 0.20726 8.54936e-17)
(1.04481 0.228789 0)
(1.04344 0.250238 0)
(2.64888 0.0753833 -5.54339e-18)
(1.22634 0.0306665 4.36212e-18)
(0.922292 0.0281552 0)
(1.05486 0.0437641 2.07518e-17)
(1.1039 0.0516564 -2.0187e-17)
(1.09461 0.0582236 -4.04995e-17)
(1.08721 0.0664812 -4.04342e-22)
(1.08582 0.0754513 8.1519e-17)
(1.08443 0.0848883 -8.17806e-17)
(1.08208 0.0950768 4.10217e-17)
(1.07944 0.106188 -8.2308e-17)
(1.07682 0.11832 8.25737e-17)
(1.07433 0.131594 -8.2841e-17)
(1.07208 0.146145 8.31096e-17)
(1.07025 0.162107 8.33796e-17)
(1.06905 0.1796 -8.36511e-17)
(1.0687 0.198712 0)
(1.06938 0.219451 -8.41976e-17)
(1.07137 0.241527 8.44736e-17)
(1.07441 0.263677 8.47254e-17)
(0.855733 0.0212317 0)
(0.81757 0.0235112 0)
(0.7717 0.0261308 4.23355e-17)
(0.715991 0.0291511 -2.29796e-17)
(0.647571 0.0325888 -2.51286e-17)
(0.562746 0.0362961 4.15714e-17)
(0.457528 0.0397043 -1.54396e-17)
(0.327977 0.041413 3.4842e-17)
(0.172413 0.0385637 0)
(0.0484209 0.0219784 0)
(0.860877 0.0614657 -1.83692e-17)
(0.823404 0.0684045 -5.92082e-17)
(0.778229 0.0764147 -2.12946e-17)
(0.723384 0.0856751 2.31168e-17)
(0.655993 0.0962419 2.52745e-17)
(0.572321 0.10766 -5.57389e-17)
(0.468248 0.118218 4.65638e-17)
(0.33957 0.123618 -8.75188e-17)
(0.183518 0.114817 -1.00227e-17)
(0.0550128 0.0656601 6.40768e-17)
(0.871715 0.100907 1.84452e-17)
(0.83553 0.112321 -1.98179e-17)
(0.791709 0.125536 4.27677e-17)
(0.738544 0.140815 4.6433e-17)
(0.673153 0.15825 -5.07764e-17)
(0.591714 0.177076 -2.79982e-17)
(0.489842 0.194457 3.11946e-17)
(0.362658 0.203241 -5.27776e-17)
(0.205602 0.188139 8.0614e-17)
(0.0682088 0.107771 -1.52348e-16)
(0.888546 0.138701 3.69166e-17)
(0.854154 0.154404 0)
(0.812242 0.17259 0)
(0.761469 0.193571 -4.6468e-17)
(0.698924 0.217473 5.08144e-17)
(0.620653 0.243217 2.16394e-21)
(0.521873 0.266858 0)
(0.396678 0.27849 7.04335e-17)
(0.238049 0.257 -6.05118e-17)
(0.0875909 0.147041 1.87678e-16)
(0.911005 0.173562 -3.68214e-17)
(0.878848 0.19322 0)
(0.839329 0.216022 8.53591e-17)
(0.791572 0.24227 0)
(0.732605 0.272126 5.06582e-17)
(0.658293 0.304191 5.58632e-17)
(0.563347 0.333438 0)
(0.440541 0.347345 1.40364e-16)
(0.27975 0.319507 -2.00956e-17)
(0.112431 0.182295 -7.0094e-17)
(0.938273 0.20456 2.04662e-21)
(0.908733 0.227724 -1.57268e-16)
(0.872025 0.254673 -2.73279e-21)
(0.827814 0.285646 0)
(0.773031 0.320829 -5.03261e-17)
(0.70332 0.358505 -5.54756e-17)
(0.612788 0.392592 0)
(0.492655 0.408114 -1.39287e-16)
(0.329143 0.373983 -1.59407e-16)
(0.141737 0.212517 2.31524e-17)
(0.969267 0.231047 7.5949e-22)
(0.942629 0.257218 1.12665e-21)
(0.909074 0.287787 1.68037e-16)
(0.868834 0.322882 -1.30518e-21)
(0.818695 0.362701 -9.96187e-17)
(0.754047 0.40519 -1.0977e-16)
(0.668319 0.443235 -3.05439e-17)
(0.551 0.459585 3.44087e-17)
(0.384273 0.419161 1.18052e-16)
(0.174263 0.236899 2.28347e-16)
(1.00277 0.252673 -1.82145e-21)
(0.979154 0.281386 7.69314e-17)
(0.948982 0.315044 -1.65889e-16)
(0.913011 0.353657 -4.49884e-17)
(0.867794 0.397404 2.45665e-16)
(0.808476 0.44386 1.08224e-16)
(0.727763 0.484895 -1.2036e-16)
(0.613304 0.501185 0)
(0.442988 0.454404 3.86936e-17)
(0.208605 0.254984 -4.03658e-16)
(1.03757 0.269525 -1.25514e-21)
(1.01655 0.300312 -7.57392e-17)
(0.989824 0.336599 4.10728e-21)
(0.958275 0.378208 -8.85071e-17)
(0.918136 0.425244 9.66088e-17)
(0.864384 0.474883 5.31676e-17)
(0.788974 0.517988 5.90921e-17)
(0.677567 0.533367 -3.32218e-17)
(0.503402 0.480116 3.7902e-17)
(0.243383 0.266863 1.75492e-16)
(1.07158 0.283248 -6.92899e-17)
(1.05205 0.315608 -7.4343e-17)
(1.02896 0.354143 8.0092e-17)
(1.00199 0.398264 8.67866e-17)
(0.96721 0.447859 -1.89383e-16)
(0.919498 0.499593 0)
(0.849855 0.543342 0)
(0.74155 0.556403 -3.24741e-17)
(0.562775 0.496253 3.69993e-17)
(0.276472 0.272288 0)
(1.10224 0.304343 6.7765e-17)
(1.08326 0.337814 7.27863e-17)
(1.06377 0.376742 0)
(1.04076 0.42113 -8.51336e-17)
(1.01057 0.470031 0)
(0.9677 0.519274 -1.0243e-16)
(0.901986 0.558099 -5.69728e-17)
(0.794537 0.563884 -6.41362e-17)
(0.610183 0.49571 -1.46581e-16)
(0.301944 0.267611 1.70049e-16)
(1.13461 0.323144 1.66208e-21)
(1.11939 0.357307 -1.48029e-16)
(1.10357 0.395836 2.29865e-21)
(1.08419 0.439257 8.66129e-17)
(1.05762 0.485666 0)
(1.01761 0.52998 1.04281e-16)
(0.95269 0.560924 0)
(0.842201 0.556487 1.30727e-16)
(0.649281 0.478764 1.6038e-20)
(0.320724 0.252535 -1.73534e-16)
(1.1682 0.337843 6.98821e-17)
(1.15727 0.371617 -7.50774e-17)
(1.14506 0.409019 2.42958e-16)
(1.12889 0.450417 -8.78919e-17)
(1.10502 0.49311 -9.60608e-17)
(1.06639 0.531253 -5.29395e-17)
(1.00038 0.553259 2.55697e-21)
(0.884937 0.538038 6.64281e-17)
(0.682347 0.451232 2.66014e-16)
(0.334782 0.231322 4.41493e-17)
(1.20281 0.347543 -1.41428e-16)
(1.19586 0.380199 0)
(1.1869 0.415709 -4.72113e-21)
(1.17334 0.45405 8.89747e-17)
(1.1511 0.491894 2.43185e-16)
(1.11241 0.522863 5.36178e-17)
(1.0436 0.535365 1.19437e-16)
(0.921673 0.509634 -1.01001e-16)
(0.708639 0.415345 -1.92737e-16)
(0.343986 0.20597 1.7923e-16)
(1.23773 0.351916 7.13839e-17)
(1.23419 0.382773 7.66976e-17)
(1.22786 0.415638 -1.65523e-16)
(1.21602 0.449975 -4.49282e-17)
(1.19413 0.481969 -1.96497e-16)
(1.15368 0.504939 -1.62515e-16)
(1.08023 0.507621 -2.41402e-16)
(0.95024 0.472044 1.36152e-16)
(0.726291 0.372447 0)
(0.347672 0.177758 -2.04071e-16)
(1.27195 0.35076 1.07808e-16)
(1.27111 0.379189 0)
(1.26655 0.408718 0)
(1.2553 0.438254 0)
(1.23224 0.463631 0)
(1.18825 0.478095 1.09157e-16)
(1.1083 0.47104 1.21635e-16)
(0.9689 0.426711 0)
(0.734119 0.324324 0)
(0.345622 0.148005 -9.14876e-17)
(1.30443 0.344099 -3.60892e-17)
(1.30539 0.369549 -9.13469e-22)
(1.30152 0.39515 -4.18506e-17)
(1.28952 0.419263 4.54429e-17)
(1.26368 0.437531 -4.97023e-17)
(1.21433 0.443349 1.37069e-16)
(1.12624 0.427081 -3.05532e-17)
(0.976512 0.37552 6.89543e-17)
(0.73166 0.273028 -1.97576e-17)
(0.338027 0.118016 9.19969e-17)
(1.33408 0.332192 7.22921e-17)
(1.3358 0.354218 -3.88391e-17)
(1.33138 0.375423 0)
(1.31714 0.393691 -4.55189e-17)
(1.28684 0.404641 0)
(1.23045 0.402037 -5.49233e-17)
(1.13289 0.377482 -3.06051e-17)
(0.972515 0.320535 3.4539e-17)
(0.719057 0.22063 0)
(0.325383 0.0889713 -1.15225e-17)
(1.35987 0.315502 -5.41589e-17)
(1.3612 0.333787 3.87952e-17)
(1.35491 0.350271 0)
(1.33695 0.362474 0)
(1.30065 0.366158 4.97254e-17)
(1.23586 0.355672 -2.74281e-17)
(1.12802 0.324083 -3.05673e-17)
(0.957281 0.263834 -6.89965e-17)
(0.697204 0.169111 3.954e-17)
(0.308478 0.0619072 -5.1778e-17)
(1.38112 0.294676 5.39569e-17)
(1.38101 0.308924 -6.00519e-22)
(1.37162 0.320373 -2.08533e-17)
(1.34853 0.326343 0)
(1.30479 0.322953 -2.47636e-17)
(1.23038 0.30537 -1.36566e-17)
(1.11173 0.268344 3.80488e-17)
(0.931255 0.207196 8.5866e-18)
(0.666808 0.120274 -4.4279e-17)
(0.287851 0.0377122 5.15299e-17)
(1.1175 0.280129 -4.17149e-16)
(1.14725 0.296989 1.03186e-16)
(1.17753 0.310635 0)
(1.20871 0.320051 1.02066e-16)
(1.24045 0.324955 -3.508e-23)
(1.27182 0.325159 -1.56047e-18)
(1.30192 0.320626 7.76276e-19)
(1.32986 0.311513 -4.98599e-17)
(1.35477 0.298145 4.97026e-17)
(1.37591 0.281096 -2.46048e-17)
(1.1285 0.267693 2.08036e-16)
(1.15589 0.281786 0)
(1.1836 0.293326 0)
(1.21206 0.301407 1.00332e-16)
(1.24122 0.305713 1.56867e-18)
(1.27025 0.306072 -7.79537e-19)
(1.29836 0.302432 7.75584e-19)
(1.32477 0.294896 4.86643e-17)
(1.34878 0.283696 -4.92843e-17)
(1.36955 0.269356 2.45897e-17)
(1.13892 0.257179 0)
(1.16365 0.269008 -1.02823e-16)
(1.18879 0.278443 1.0189e-16)
(1.21463 0.285031 -1.01085e-16)
(1.24125 0.288488 0)
(1.26793 0.288663 -7.79841e-19)
(1.29399 0.285508 -9.8562e-17)
(1.31878 0.279091 0)
(1.34173 0.269584 0)
(1.36194 0.257452 -2.46172e-17)
(1.14805 0.246967 0)
(1.17055 0.256782 1.22755e-21)
(1.19337 0.264425 -1.01807e-16)
(1.21678 0.269708 1.01046e-16)
(1.24097 0.272393 7.84336e-19)
(1.26535 0.272355 -1.0063e-16)
(1.28935 0.269551 -2.81337e-22)
(1.31245 0.264027 0)
(1.33418 0.25591 0)
(1.35365 0.245598 0)
(1.15554 0.236958 -1.03426e-16)
(1.17617 0.245122 2.051e-16)
(1.197 0.251307 7.94699e-19)
(1.21829 0.255491 -1.01798e-16)
(1.2403 0.257496 -7.84346e-19)
(1.26256 0.257227 -9.98838e-17)
(1.28461 0.254658 1.49968e-16)
(1.30603 0.249823 -3.87197e-19)
(1.32648 0.24282 -4.90485e-17)
(1.34509 0.233987 -2.46733e-17)
(1.1615 0.227121 2.06463e-16)
(1.18047 0.233973 -1.02414e-16)
(1.19958 0.239007 1.01639e-16)
(1.21905 0.242302 1.00182e-16)
(1.23916 0.243735 1.01968e-16)
(1.25954 0.243247 9.91373e-17)
(1.27981 0.240832 -4.9761e-17)
(1.29965 0.236522 -3.87523e-19)
(1.31882 0.230399 3.86291e-19)
(1.33649 0.222755 2.47011e-17)
(1.16608 0.217453 -1.0344e-16)
(1.18358 0.223244 -1.01878e-16)
(1.20118 0.227373 -1.01557e-16)
(1.21909 0.229967 -1.00933e-16)
(1.23756 0.230948 -9.96157e-17)
(1.25627 0.230284 9.83903e-17)
(1.27496 0.227984 -4.90139e-17)
(1.29335 0.224087 0)
(1.31129 0.218666 9.90693e-17)
(1.32801 0.21198 0)
(1.16945 0.207975 0)
(1.18564 0.212894 1.02143e-16)
(1.20192 0.216308 -1.01473e-16)
(1.21847 0.218358 7.8823e-19)
(1.2355 0.218996 -1.0197e-16)
(1.25278 0.218206 -9.99861e-17)
(1.27006 0.216012 5.0601e-17)
(1.28715 0.212454 -4.96871e-17)
(1.30394 0.207606 -9.91697e-17)
(1.31973 0.2017 0)
(1.17177 0.198714 -1.02649e-16)
(1.18679 0.202914 0)
(1.2019 0.20576 1.0139e-16)
(1.21726 0.207391 1.01645e-16)
(1.23305 0.207774 1.2757e-22)
(1.24907 0.206907 9.92388e-17)
(1.26512 0.20482 0)
(1.28105 0.201555 4.97287e-17)
(1.29679 0.197184 4.98289e-17)
(1.31169 0.191922 -2.4979e-17)
(1.1732 0.189693 1.02458e-16)
(1.18718 0.193299 -1.01873e-16)
(1.20124 0.195693 1.01307e-16)
(1.21556 0.197002 -1.00031e-16)
(1.23027 0.197202 1.99237e-16)
(1.24518 0.196298 -9.84909e-17)
(1.26015 0.194323 -7.79447e-19)
(1.27504 0.191319 -3.8883e-19)
(1.28982 0.187356 -4.92973e-17)
(1.30389 0.182635 2.48134e-17)
(1.1739 0.180933 0)
(1.18693 0.184049 1.01739e-16)
(1.20007 0.186082 -1.01224e-16)
(1.21346 0.187142 -7.87343e-19)
(1.22721 0.187215 -9.88352e-17)
(1.24115 0.186306 -7.81947e-19)
(1.25516 0.184448 -7.79913e-19)
(1.26913 0.181682 7.78328e-19)
(1.28304 0.178076 4.97357e-17)
(1.29635 0.173818 2.48417e-17)
(1.17397 0.172448 1.02473e-16)
(1.18617 0.17516 -3.96897e-19)
(1.19847 0.176904 0)
(1.21104 0.177775 0)
(1.22393 0.177761 7.84406e-19)
(1.23701 0.17687 -5.16255e-17)
(1.25017 0.175132 1.37132e-23)
(1.26332 0.172587 5.0244e-17)
(1.27645 0.169298 3.88958e-19)
(1.28905 0.165443 -2.48698e-17)
(1.17355 0.164251 -1.01884e-16)
(1.18499 0.166628 -1.0147e-16)
(1.19655 0.16814 -1.01058e-16)
(1.20838 0.168866 -7.8675e-19)
(1.22051 0.168797 1.3541e-23)
(1.23282 0.16794 5.00781e-17)
(1.24522 0.166325 7.80889e-19)
(1.25763 0.163985 1.03764e-22)
(1.27005 0.160981 0)
(1.28201 0.157481 0)
(1.17273 0.156347 -1.0209e-16)
(1.18349 0.158447 2.0307e-16)
(1.19438 0.159774 1.00976e-16)
(1.20554 0.160389 0)
(1.21698 0.160287 -9.9622e-17)
(1.2286 0.159476 4.93123e-17)
(1.24032 0.157981 0)
(1.25206 0.155832 -5.03286e-17)
(1.26383 0.153088 -2.4554e-17)
(1.2752 0.149903 0)
(1.17159 0.148738 1.01901e-16)
(1.18173 0.15061 -1.01599e-16)
(1.19202 0.151786 0)
(1.20258 0.152318 9.98426e-17)
(1.21339 0.152201 1.00407e-16)
(1.22439 0.151442 -1.00224e-16)
(1.23549 0.150063 -4.92563e-17)
(1.24662 0.148093 0)
(1.25781 0.145585 2.4969e-17)
(1.26864 0.142683 0)
(1.1702 0.141425 1.01315e-16)
(1.17979 0.143107 0)
(1.18953 0.144162 0)
(1.19954 0.14463 -9.9805e-17)
(1.20979 0.144509 -1.1354e-23)
(1.22022 0.143806 4.85625e-17)
(1.23075 0.142539 5.08513e-17)
(1.24134 0.140735 -3.908e-19)
(1.25199 0.138442 1.95273e-19)
(1.26231 0.135797 1.95183e-19)
(1.16862 0.134403 -2.02254e-16)
(1.17771 0.135926 1.00938e-16)
(1.18695 0.136882 7.86931e-19)
(1.19646 0.137303 -7.85573e-19)
(1.2062 0.137187 -5.02042e-17)
(1.21611 0.136541 0)
(1.22613 0.135381 0)
(1.23621 0.133731 5.00649e-17)
(1.24636 0.131635 0)
(1.25623 0.129221 0)
(1.16691 0.127664 1.01334e-16)
(1.17554 0.129055 -1.012e-16)
(1.18433 0.129931 7.86287e-19)
(1.19337 0.130317 -1.02085e-16)
(1.20265 0.130211 5.0989e-17)
(1.21208 0.129621 0)
(1.22164 0.128562 -7.83289e-19)
(1.23125 0.127054 -4.97156e-17)
(1.24095 0.125139 1.95671e-19)
(1.25039 0.122935 1.95629e-19)
(1.16509 0.121201 -1.01146e-16)
(1.17331 0.122481 3.93259e-19)
(1.18168 0.123291 -1.00563e-16)
(1.19031 0.12365 1.00476e-16)
(1.19915 0.12356 7.84445e-19)
(1.20815 0.123025 -7.84064e-19)
(1.21728 0.122059 4.9378e-17)
(1.22646 0.120683 7.83589e-19)
(1.23574 0.118933 0)
(1.24478 0.11692 0)
(1.16321 0.115004 -3.9253e-19)
(1.17105 0.116189 1.00934e-16)
(1.17904 0.116944 1.00481e-16)
(1.18728 0.117285 -1.01223e-16)
(1.19573 0.117211 5.09894e-17)
(1.20434 0.116729 0)
(1.21306 0.115852 -5.01926e-17)
(1.22185 0.114597 -3.92121e-19)
(1.23073 0.112998 3.92135e-19)
(1.23941 0.11116 0)
(1.16129 0.109062 3.92388e-19)
(1.16877 0.110166 -1.00802e-16)
(1.17642 0.110876 -1.00398e-16)
(1.18431 0.111203 1.004e-16)
(1.1924 0.111147 -1.0041e-16)
(1.20064 0.110716 0)
(1.20899 0.10992 0)
(1.21742 0.108776 -3.92452e-19)
(1.22594 0.107316 -2.49258e-17)
(1.23427 0.105637 2.53227e-17)
(1.15935 0.103363 9.98035e-17)
(1.16652 0.104398 -9.98867e-17)
(1.17385 0.105069 1.00316e-16)
(1.18141 0.105386 -5.09648e-17)
(1.18917 0.105349 7.8449e-19)
(1.19707 0.104965 0)
(1.20508 0.104245 -5.02546e-17)
(1.21318 0.103203 -3.92784e-19)
(1.22135 0.101871 2.55407e-17)
(1.22937 0.100337 -2.51552e-17)
(1.15741 0.0978958 0)
(1.16428 0.0988702 1.00147e-16)
(1.17132 0.0995086 -1.00234e-16)
(1.17859 0.099818 5.09454e-17)
(1.18604 0.0997999 4.94211e-17)
(1.19363 0.0994606 0)
(1.20133 0.0988104 4.94998e-17)
(1.20911 0.0978628 3.93124e-19)
(1.21697 0.0966464 1.96671e-19)
(1.22469 0.0952456 1.96751e-19)
(1.15548 0.0926483 3.89942e-19)
(1.16209 0.0935694 -3.90691e-19)
(1.16887 0.0941792 1.00152e-16)
(1.17585 0.0944832 7.83471e-19)
(1.18302 0.0944831 -5.02056e-17)
(1.19032 0.0941854 4.94788e-17)
(1.19774 0.0935996 -4.95304e-17)
(1.20523 0.0927385 2.40005e-17)
(1.21279 0.0916289 5.90608e-19)
(1.22023 0.0903497 -1.96977e-19)
(1.15359 0.0876088 9.92526e-17)
(1.15995 0.0884824 3.90181e-19)
(1.16648 0.0890669 0)
(1.17321 0.0893666 0)
(1.18012 0.0893836 2.39592e-23)
(1.18716 0.0891244 -5.0281e-17)
(1.1943 0.088598 9.99085e-17)
(1.20152 0.0878163 3.93804e-19)
(1.20882 0.0868046 1.97073e-19)
(1.216 0.0856369 1.28182e-17)
(1.15173 0.0827658 -9.90703e-17)
(1.15787 0.0835964 -3.89671e-19)
(1.16417 0.084158 -4.9994e-17)
(1.17067 0.084454 0)
(1.17734 0.0844869 5.02058e-17)
(1.18413 0.0842632 0)
(1.19103 0.0837913 -4.95915e-17)
(1.198 0.0830826 -2.64058e-17)
(1.20504 0.0821609 3.94547e-19)
(1.21198 0.0810953 1.44424e-23)
(1.14992 0.0781081 -9.96638e-17)
(1.15585 0.0788992 3.89163e-19)
(1.16195 0.0794397 4.99531e-17)
(1.16823 0.0797322 -7.8257e-19)
(1.17467 0.0797797 7.8447e-19)
(1.18124 0.0795884 0)
(1.18791 0.0791665 -7.87649e-19)
(1.19465 0.0785249 3.94456e-19)
(1.20145 0.0776858 1.97477e-19)
(1.20817 0.0767139 -1.24524e-17)
(1.14817 0.0736248 9.8707e-17)
(1.15391 0.0743791 3.88655e-19)
(1.15981 0.0748996 -7.79873e-19)
(1.1659 0.0751886 1.56455e-18)
(1.17213 0.075249 -7.8447e-19)
(1.17849 0.0750873 0)
(1.18495 0.0747113 -2.52204e-17)
(1.19147 0.0741311 0)
(1.19805 0.0733679 0)
(1.20456 0.0724821 1.26646e-17)
(1.14647 0.0693053 4.94561e-17)
(1.15204 0.0700248 0)
(1.15777 0.0705261 0)
(1.16367 0.0708111 -7.81968e-19)
(1.16972 0.070883 -4.94213e-17)
(1.17588 0.0707481 0)
(1.18214 0.0704139 2.60246e-17)
(1.18846 0.0698901 -1.18536e-18)
(1.19484 0.0691967 3.95763e-19)
(1.20115 0.06839 -1.26792e-17)
(1.14485 0.0651395 -9.91169e-17)
(1.15026 0.0658257 3.87643e-19)
(1.15582 0.0663082 7.78596e-19)
(1.16155 0.0665885 -5.15902e-17)
(1.16742 0.0666702 1.0198e-16)
(1.17341 0.0665594 -7.86957e-19)
(1.17948 0.0662634 2.52515e-17)
(1.18562 0.0657914 -3.95454e-19)
(1.19181 0.0651621 1.98086e-19)
(1.19794 0.0644282 1.98343e-19)
(1.14329 0.0611175 4.88904e-17)
(1.14855 0.0617714 3.87138e-19)
(1.15396 0.0622352 0)
(1.15954 0.0625101 4.92262e-17)
(1.16525 0.0626 -4.94212e-17)
(1.17107 0.0625108 2.51909e-17)
(1.17698 0.0622495 2.22588e-24)
(1.18294 0.0618249 -3.9579e-19)
(1.18896 0.0612545 3.96577e-19)
(1.19492 0.0605876 0)
(1.14181 0.05723 -3.84259e-19)
(1.14693 0.0578523 3.86635e-19)
(1.15221 0.0582972 0)
(1.15764 0.0585659 -4.99882e-17)
(1.1632 0.0586623 7.84459e-19)
(1.16887 0.0585922 -5.11861e-17)
(1.17462 0.0583624 -2.52827e-17)
(1.18042 0.0579812 -2.57483e-17)
(1.18628 0.0574652 1.98494e-19)
(1.19208 0.05686 1.98802e-19)
(1.1404 0.0534678 -4.94791e-17)
(1.1454 0.0540589 4.98108e-17)
(1.15055 0.0544847 0)
(1.15585 0.0547462 5.07496e-17)
(1.16127 0.0548475 -7.84463e-19)
(1.1668 0.0547943 2.52077e-17)
(1.1724 0.054593 0)
(1.17806 0.0542515 2.49772e-17)
(1.18376 0.0537854 5.96091e-19)
(1.18942 0.0532372 -1.99032e-19)
(1.13908 0.0498224 4.86232e-17)
(1.14396 0.0503825 3.85586e-19)
(1.14899 0.0507886 7.76045e-19)
(1.15417 0.051042 -7.80464e-19)
(1.15947 0.0511467 0)
(1.16486 0.0511081 2.52161e-17)
(1.17033 0.0509325 -2.6105e-17)
(1.17585 0.0506274 2.57921e-17)
(1.18142 0.0502073 1.98904e-19)
(1.18694 0.0497116 1.29521e-17)
(1.13783 0.0462853 -4.89168e-17)
(1.14261 0.0468144 -4.92964e-17)
(1.14753 0.0472004 0)
(1.1526 0.0474447 0)
(1.15778 0.0475512 0)
(1.16305 0.0475252 -5.04489e-17)
(1.1684 0.0473727 7.91544e-19)
(1.1738 0.0471009 -2.66083e-17)
(1.17923 0.0467231 3.98215e-19)
(1.18463 0.0462759 -1.27676e-17)
(1.13666 0.0428486 -3.8142e-19)
(1.14135 0.0433465 3.8463e-19)
(1.14617 0.0437118 -7.74772e-19)
(1.15114 0.043946 7.79857e-19)
(1.15621 0.0440528 7.84449e-19)
(1.16137 0.0440376 -7.88524e-19)
(1.16661 0.0439058 2.45531e-17)
(1.17189 0.0436643 3.97481e-19)
(1.1772 0.0433256 3.98627e-19)
(1.18248 0.0429233 0)
(1.13558 0.0395046 4.83583e-17)
(1.14018 0.0399711 3.84131e-19)
(1.14491 0.0403151 2.47724e-17)
(1.14978 0.0405381 7.79548e-19)
(1.15476 0.0406439 -5.11385e-24)
(1.15982 0.0406375 -7.88785e-19)
(1.16495 0.0405243 0)
(1.17012 0.0403105 0)
(1.17533 0.0400079 1.27692e-17)
(1.1805 0.0396472 0)
(1.13458 0.036246 3.80081e-19)
(1.1391 0.0366806 -3.83633e-19)
(1.14375 0.0370026 -2.55256e-17)
(1.14853 0.0372135 4.90569e-24)
(1.15342 0.0373169 7.84446e-19)
(1.15839 0.0373178 2.52495e-17)
(1.16342 0.0372211 2.53765e-17)
(1.1685 0.0370326 -3.98154e-19)
(1.1736 0.0367632 -1.2383e-17)
(1.17868 0.0364411 0)
(1.13366 0.0330656 -3.79392e-19)
(1.1381 0.033468 3.83135e-19)
(1.14268 0.0337672 -2.47318e-17)
(1.14739 0.033965 0)
(1.15219 0.0340649 0)
(1.15708 0.0340714 0)
(1.16202 0.0339893 -2.53921e-17)
(1.16701 0.033824 -1.31503e-17)
(1.17202 0.0335854 3.99866e-19)
(1.17701 0.0332991 0)
(1.13282 0.0299566 -3.78704e-19)
(1.1372 0.0303262 3.82639e-19)
(1.14171 0.030602 2.39393e-17)
(1.14635 0.0307857 4.71414e-24)
(1.15108 0.0308808 7.84436e-19)
(1.15588 0.0308916 0)
(1.16075 0.0308224 7.93991e-19)
(1.16566 0.0306783 1.15662e-17)
(1.17059 0.0304682 -1.24087e-17)
(1.1755 0.0302153 0)
(1.13206 0.0269124 0)
(1.13639 0.0272485 2.44571e-17)
(1.14084 0.0275001 2.46912e-17)
(1.14541 0.0276689 -7.78331e-19)
(1.15007 0.0277582 7.84431e-19)
(1.15481 0.0277719 0)
(1.15961 0.0277142 1.35062e-17)
(1.16444 0.0275894 -1.19753e-18)
(1.16929 0.0274058 1.30226e-17)
(1.17413 0.0271841 2.00894e-19)
(1.13139 0.0239263 -3.77335e-19)
(1.13566 0.0242284 -2.40439e-17)
(1.14006 0.0244551 -2.39e-17)
(1.14457 0.0246081 -4.56026e-24)
(1.14917 0.0246906 -7.84425e-19)
(1.15385 0.0247061 0)
(1.15859 0.0246584 -1.35146e-17)
(1.16335 0.0245514 3.9952e-19)
(1.16814 0.0243925 6.01668e-19)
(1.17291 0.0242 -2.01129e-19)
(1.13079 0.0209919 3.76654e-19)
(1.13502 0.0212593 -3.81156e-19)
(1.13937 0.0214604 0)
(1.14383 0.021597 0)
(1.14838 0.0216717 0)
(1.15301 0.021688 -1.26456e-17)
(1.15768 0.0216491 -1.27275e-17)
(1.16239 0.0215586 -3.99857e-19)
(1.16712 0.0214227 2.00766e-19)
(1.17183 0.0212576 2.01364e-19)
(1.13027 0.0181027 -3.75974e-19)
(1.13446 0.0183348 3.80664e-19)
(1.13877 0.0185098 1.30849e-17)
(1.14319 0.0186292 -1.32161e-17)
(1.1477 0.0186956 0)
(1.15227 0.0187118 2.52995e-17)
(1.1569 0.0186806 1.27353e-17)
(1.16156 0.0186053 6.003e-18)
(1.16623 0.0184911 -6.23017e-18)
(1.17089 0.0183518 2.016e-19)
(1.12983 0.0152523 -1.23848e-17)
(1.13398 0.0154487 1.25457e-17)
(1.13826 0.0155971 -1.23051e-17)
(1.14264 0.0156989 2.40905e-17)
(1.14711 0.0157562 7.84404e-19)
(1.15165 0.0157716 -2.53078e-17)
(1.15623 0.0157473 6.37159e-18)
(1.16085 0.015686 -6.80922e-18)
(1.16547 0.0155922 6.84021e-18)
(1.17009 0.0154774 0)
(1.12946 0.0124345 1.23625e-17)
(1.13359 0.0125948 -3.79685e-19)
(1.13784 0.0127163 -7.68433e-19)
(1.14219 0.0128 -1.16521e-17)
(1.14663 0.0128479 0)
(1.15113 0.0128618 1.26581e-17)
(1.15568 0.0128436 -7.17247e-18)
(1.16025 0.0127954 -5.21151e-18)
(1.16484 0.0127209 -6.04178e-19)
(1.16942 0.0126293 2.02074e-19)
(1.12916 0.00964309 -1.19663e-17)
(1.13328 0.00976716 -2.21382e-24)
(1.1375 0.00986152 7.67802e-19)
(1.14183 0.00992702 -1.553e-18)
(1.14624 0.00996499 1.56877e-18)
(1.15072 0.00997686 -7.1225e-18)
(1.15524 0.00996405 5.58203e-18)
(1.15978 0.00992813 3.61107e-18)
(1.16434 0.00987187 3.83045e-18)
(1.16889 0.00980246 -2.02312e-19)
(1.12894 0.00687194 1.15715e-17)
(1.13304 0.00695971 -1.17398e-17)
(1.13726 0.00702684 0)
(1.14157 0.00707385 0)
(1.14596 0.00710157 7.84376e-19)
(1.15041 0.00711094 5.54153e-18)
(1.15491 0.0071029 -6.38341e-18)
(1.15943 0.00707853 2.81101e-18)
(1.16397 0.00703976 -3.02719e-18)
(1.16849 0.00699161 2.0255e-19)
(1.1288 0.00411514 3.72603e-19)
(1.13289 0.00416644 -3.78215e-19)
(1.13709 0.00420609 3.06617e-18)
(1.14139 0.00423425 -7.75883e-19)
(1.14577 0.00425127 3.13748e-18)
(1.15021 0.00425764 -2.37572e-18)
(1.15469 0.00425386 0)
(1.1592 0.00424051 -4.01917e-19)
(1.16371 0.00421868 4.04049e-19)
(1.16822 0.00419128 -8.11153e-19)
(1.12872 0.00136871 -3.72961e-19)
(1.13281 0.0013846 3.78804e-19)
(1.13701 0.00139715 -3.84077e-18)
(1.1413 0.00140632 7.77912e-19)
(1.14567 0.00141215 -1.57355e-18)
(1.15011 0.00141476 1.58931e-18)
(1.15458 0.00141426 0)
(1.15908 0.00141077 -4.03566e-19)
(1.16359 0.00140462 2.02901e-19)
(1.16809 0.0013967 1.0185e-18)
(2.68926 0.0697302 0)
(1.18502 0.0073834 0)
(0.94033 0.0150378 0)
(1.07775 0.0444904 0)
(1.10986 0.0544697 0)
(1.09721 0.059837 0)
(1.09169 0.0682622 0)
(1.09101 0.0779423 0)
(1.08986 0.0878327 0)
(1.08809 0.0982689 0)
(1.0863 0.109557 0)
(1.08469 0.121809 0)
(1.08333 0.135121 0)
(1.08238 0.149609 0)
(1.082 0.165388 0)
(1.08244 0.182554 0)
(1.08396 0.201158 0)
(1.08695 0.221144 0)
(1.09196 0.242176 0)
(1.09853 0.262825 0)
(2.70193 0.0428483 0)
(1.15746 0.0149808 0)
(0.946515 0.0230171 0)
(1.08739 0.0443599 0)
(1.11164 0.0541112 0)
(1.09821 0.0608084 0)
(1.09419 0.0694673 0)
(1.09414 0.079063 0)
(1.09336 0.0889443 0)
(1.09218 0.0993571 0)
(1.09114 0.110531 0)
(1.09035 0.122564 0)
(1.0899 0.13554 0)
(1.08994 0.14955 0)
(1.09065 0.164679 0)
(1.09226 0.180983 0)
(1.09505 0.198463 0)
(1.09939 0.216966 0)
(1.1057 0.235931 0)
(1.11301 0.253699 0)
(2.70676 0.0231935 0)
(1.14061 0.0210847 0)
(0.944181 0.0292087 0)
(1.0888 0.0436374 0)
(1.11099 0.0533458 0)
(1.09798 0.0613595 0)
(1.09522 0.070219 0)
(1.09594 0.0796839 0)
(1.09577 0.0895089 0)
(1.0953 0.0998486 0)
(1.09503 0.110855 0)
(1.09507 0.122613 0)
(1.09549 0.135195 0)
(1.09644 0.148668 0)
(1.09812 0.163087 0)
(1.10073 0.178472 0)
(1.10453 0.194781 0)
(1.10981 0.211814 0)
(1.11693 0.228969 0)
(1.12505 0.244729 0)
(2.70984 0.0143421 0)
(1.13125 0.0213655 0)
(0.940004 0.0303635 0)
(1.08725 0.0423501 0)
(1.10924 0.0523297 0)
(1.09683 0.0611696 0)
(1.09511 0.0702566 0)
(1.09667 0.0797213 0)
(1.09724 0.0895266 0)
(1.09751 0.0997859 0)
(1.09803 0.110615 0)
(1.09887 0.12209 0)
(1.10011 0.134272 0)
(1.10192 0.147212 0)
(1.10446 0.160939 0)
(1.10792 0.175451 0)
(1.11253 0.190678 0)
(1.11854 0.206414 0)
(1.12623 0.222097 0)
(1.13494 0.236308 0)
(2.71265 0.0106341 0)
(1.12625 0.02018 0)
(0.936657 0.0297 0)
(1.08531 0.040817 0)
(1.10734 0.0509508 0)
(1.09535 0.0602745 0)
(1.09441 0.0695912 0)
(1.09672 0.0791222 0)
(1.098 0.0889224 0)
(1.099 0.099094 0)
(1.10026 0.109736 0)
(1.10185 0.120919 0)
(1.10385 0.132694 0)
(1.10642 0.145099 0)
(1.10971 0.158147 0)
(1.1139 0.171817 0)
(1.11918 0.186031 0)
(1.12576 0.200585 0)
(1.13386 0.214961 0)
(1.14297 0.227832 0)
(2.71565 0.00910033 0)
(1.12384 0.0191971 0)
(0.934517 0.0287112 0)
(1.0838 0.0392671 0)
(1.10578 0.0493619 0)
(1.094 0.0589197 0)
(1.09356 0.0683911 0)
(1.09645 0.0779731 0)
(1.09832 0.0877504 0)