/*--------------------------------*- C++ -*----------------------------------*\
  =========                 |
  \\      /  F ield         | OpenFOAM: The Open Source CFD Toolbox
   \\    /   O peration     | Website:  https://openfoam.org
    \\  /    A nd           | Version:  6
     \\/     M anipulation  |
\*---------------------------------------------------------------------------*/
FoamFile
{
    version     2.0;
    format      ascii;
    class       surfaceScalarField;
    location    "0.8";
    object      phi;
}
// * * * * * * * * * * * * * * * * * * * * * * * * * * * * * * * * * * * * * //

dimensions      [0 3 -1 0 0 0 0];

internalField   nonuniform List<scalar> 
11030
(
0.000116828
1.88233e-07
0.000116935
-1.0678e-07
0.000116851
8.43429e-08
0.000116564
2.8664e-07
0.000116269
2.95406e-07
0.000115967
3.02301e-07
0.000115606
3.60838e-07
0.000115167
4.38951e-07
0.000114644
5.22795e-07
0.000114028
6.16071e-07
0.000113305
7.22522e-07
0.000112462
8.43621e-07
0.000111481
9.80864e-07
0.000110344
1.13642e-06
0.000109032
1.31284e-06
0.000107519
1.51265e-06
0.000105781
1.73764e-06
0.000103794
1.98725e-06
0.000101539
2.25546e-06
2.52126e-06
9.90174e-05
0.000117311
-1.13811e-07
0.000117115
8.92847e-08
0.000116765
4.33451e-07
0.000116461
5.91565e-07
0.000116151
6.05322e-07
0.00011579
6.62454e-07
0.000115367
7.84618e-07
0.000114872
9.33981e-07
0.000114295
1.09976e-06
0.000113623
1.28772e-06
0.000112843
1.50254e-06
0.00011194
1.74682e-06
0.000110897
2.02375e-06
0.000109696
2.33764e-06
0.000108315
2.69342e-06
0.000106732
3.09596e-06
0.000104921
3.54867e-06
0.000102858
4.05028e-06
0.000100525
4.58865e-06
5.12617e-06
9.79197e-05
0.000117052
-1.94947e-07
0.000116963
1.77809e-07
0.00011668
7.16124e-07
0.000116341
9.30623e-07
0.000115985
9.61554e-07
0.000115583
1.06458e-06
0.000115114
1.25338e-06
0.00011457
1.47831e-06
0.000113941
1.72893e-06
0.000113215
2.01372e-06
0.000112378
2.33876e-06
0.000111417
2.70779e-06
0.000110316
3.12556e-06
0.000109055
3.59842e-06
0.000107615
4.13354e-06
0.000105973
4.73805e-06
0.000104104
5.41693e-06
0.000101986
6.16834e-06
9.96004e-05
6.97463e-06
7.78446e-06
9.69421e-05
0.000116932
-2.00759e-07
0.000116803
3.07257e-07
0.000116516
1.0027e-06
0.000116164
1.28317e-06
0.000115782
1.34381e-06
0.000115347
1.49896e-06
0.000114841
1.75979e-06
0.000114254
2.06549e-06
0.000113577
2.40515e-06
0.000112801
2.78984e-06
0.000111913
3.22708e-06
0.000110899
3.72168e-06
0.000109745
4.27991e-06
0.000108433
4.90994e-06
0.000106946
5.62106e-06
0.000105261
6.42244e-06
0.000103358
7.32053e-06
0.000101213
8.31301e-06
9.88105e-05
9.37713e-06
1.04502e-05
9.61447e-05
0.000116816
-1.35945e-07
0.000116631
4.91881e-07
0.000116326
1.30837e-06
0.000115959
1.64972e-06
0.000115556
1.74719e-06
0.000115093
1.96169e-06
0.000114552
2.30084e-06
0.000113924
2.69288e-06
0.000113204
3.12604e-06
0.00011238
3.61358e-06
0.000111443
4.16431e-06
0.00011038
4.78396e-06
0.00010918
5.48009e-06
0.000107827
6.26258e-06
0.000106306
7.14249e-06
0.000104598
8.13071e-06
0.000102683
9.23498e-06
0.000100544
1.04524e-05
9.81656e-05
1.17554e-05
1.30725e-05
9.55433e-05
0.000116684
1.14619e-08
0.000116442
7.34369e-07
0.000116123
1.62751e-06
0.000115747
2.02542e-06
0.000115324
2.16995e-06
0.000114833
2.45338e-06
0.000114255
2.87838e-06
0.000113585
3.36279e-06
0.000112818
3.89366e-06
0.000111945
4.48616e-06
0.000110959
5.15017e-06
0.000109851
5.89222e-06
0.00010861
6.72103e-06
0.000107225
7.64784e-06
0.000105682
8.68517e-06
0.000103968
9.84522e-06
0.000102066
1.11366e-05
9.99624e-05
1.25559e-05
9.76466e-05
1.40713e-05
1.56049e-05
9.51141e-05
0.000116512
2.79523e-07
0.000116217
1.02945e-06
0.000115918
1.92612e-06
0.000115548
2.3958e-06
0.000115103
2.61451e-06
0.000114576
2.98079e-06
0.000113954
3.50007e-06
0.000113234
4.08301e-06
0.000112413
4.71492e-06
0.000111486
5.41268e-06
0.000110449
6.1874e-06
0.000109295
7.04646e-06
0.000108016
7.99959e-06
0.000106605
9.05907e-06
0.000105052
1.02384e-05
0.000103346
1.15505e-05
0.000101478
1.30047e-05
9.94371e-05
1.4597e-05
9.72158e-05
1.62926e-05
1.80113e-05
9.48095e-05
0.000116226
7.78179e-07
0.000115909
1.34681e-06
0.000115724
2.11147e-06
0.00011538
2.7391e-06
0.000114899
3.09607e-06
0.00011432
3.55989e-06
0.00011364
4.17964e-06
0.000112857
4.86623e-06
0.000111972
5.60038e-06
0.000110984
6.40072e-06
0.00010989
7.28049e-06
0.000108689
8.24813e-06
0.000107374
9.31409e-06
0.000105942
1.04913e-05
0.000104387
1.17936e-05
0.000102703
1.32342e-05
0.000100885
1.48224e-05
9.8928e-05
1.65544e-05
9.6826e-05
1.83946e-05
2.02688e-05
9.45684e-05
0.000115559
1.89225e-06
0.000115472
1.43343e-06
0.000115606
1.97775e-06
0.000115267
3.07757e-06
0.000114699
3.66377e-06
0.000114043
4.21592e-06
0.000113288
4.93508e-06
0.000112426
5.72814e-06
0.000111464
6.56206e-06
0.000110406
7.45867e-06
0.000109252
8.43494e-06
0.000108
9.50039e-06
0.000106648
1.06657e-05
0.000105196
1.19438e-05
0.000103641
1.33479e-05
0.000101985
1.48903e-05
0.000100228
1.65799e-05
9.83681e-05
1.84141e-05
9.64044e-05
2.03583e-05
2.23403e-05
9.4333e-05
0.000114349
4.20816e-06
0.000115331
4.5116e-07
0.000115735
1.57445e-06
0.000115198
3.61445e-06
0.000114481
4.38044e-06
0.000113722
4.97519e-06
0.000112869
5.78766e-06
0.000111916
6.68141e-06
0.000110872
7.60623e-06
0.000109741
8.58966e-06
0.000108523
9.65246e-06
0.000107219
1.08046e-05
0.000105829
1.20562e-05
0.000104354
1.34189e-05
0.000102797
1.49041e-05
0.000101166
1.65216e-05
9.94687e-05
1.82771e-05
9.77149e-05
2.01679e-05
9.58941e-05
2.21791e-05
9.3994e-05
2.42404e-05
8.85968e-05
1.04205e-05
7.8033e-05
1.05639e-05
6.73118e-05
1.07212e-05
5.64286e-05
1.08831e-05
4.53988e-05
1.10298e-05
3.42964e-05
1.11024e-05
2.33364e-05
1.096e-05
1.30356e-05
1.03008e-05
4.47989e-06
8.5557e-06
4.47989e-06
8.75873e-05
2.07529e-05
7.71058e-05
2.10454e-05
6.647e-05
2.13571e-05
5.56778e-05
2.16753e-05
4.47485e-05
2.19591e-05
3.37612e-05
2.20898e-05
2.29331e-05
2.1788e-05
1.27786e-05
2.04554e-05
4.41881e-06
1.69155e-05
8.89871e-06
8.66946e-05
3.10004e-05
7.62937e-05
3.14463e-05
6.57397e-05
3.19111e-05
5.50331e-05
3.23819e-05
4.41951e-05
3.2797e-05
3.33085e-05
3.29764e-05
2.2595e-05
3.25015e-05
1.25723e-05
3.04781e-05
4.3356e-06
2.51522e-05
1.32343e-05
8.59651e-05
4.118e-05
7.56305e-05
4.1781e-05
6.51453e-05
4.23962e-05
5.45103e-05
4.30169e-05
4.37476e-05
4.35597e-05
3.2942e-05
4.37821e-05
2.23191e-05
4.31244e-05
1.23995e-05
4.03977e-05
4.26701e-06
3.32847e-05
1.75013e-05
8.5413e-05
5.13103e-05
7.51263e-05
5.20677e-05
6.46921e-05
5.28304e-05
5.41101e-05
5.35989e-05
4.34015e-05
5.42683e-05
3.26531e-05
5.45304e-05
2.20951e-05
5.36823e-05
1.22533e-05
5.02395e-05
4.20646e-06
4.13315e-05
2.17078e-05
8.50166e-05
6.14079e-05
7.47601e-05
6.23242e-05
6.43589e-05
6.32317e-05
5.38096e-05
6.41482e-05
4.31325e-05
6.49453e-05
3.24172e-05
6.52458e-05
2.19004e-05
6.41991e-05
1.21166e-05
6.00233e-05
4.14505e-06
4.93031e-05
2.58528e-05
8.47282e-05
7.14892e-05
7.44852e-05
7.25671e-05
6.40996e-05
7.36173e-05
5.35628e-05
7.4685e-05
4.28951e-05
7.56131e-05
3.21909e-05
7.59499e-05
2.16974e-05
7.46926e-05
1.19623e-05
6.97585e-05
4.06915e-06
5.71962e-05
2.9922e-05
8.44787e-05
8.15789e-05
7.42298e-05
8.2816e-05
6.38423e-05
8.40049e-05
5.32976e-05
8.52297e-05
4.26192e-05
8.62914e-05
3.19106e-05
8.66586e-05
2.14339e-05
8.51693e-05
1.17542e-05
7.94381e-05
3.961e-06
6.49895e-05
3.3883e-05
8.41606e-05
9.17513e-05
7.38798e-05
9.30968e-05
6.34702e-05
9.44145e-05
5.28998e-05
9.58001e-05
4.22021e-05
9.69892e-05
3.14907e-05
9.73699e-05
2.10451e-05
9.56149e-05
1.14473e-05
8.90359e-05
3.79555e-06
7.26412e-05
3.76785e-05
8.35248e-05
0.00010222
7.32221e-05
0.0001034
6.27746e-05
0.000104862
5.21854e-05
0.000106389
4.14943e-05
0.00010768
3.08187e-05
0.000108045
2.04492e-05
0.000105984
1.09778e-05
9.85074e-05
3.52177e-06
8.00973e-05
4.12003e-05
3.18506e-05
0.00010772
-3.73498e-05
2.63837e-05
0.000108866
2.10071e-05
0.000110239
1.57708e-05
0.000111625
1.08248e-05
0.000112626
6.42892e-06
0.000112441
2.94064e-06
0.000109473
7.21863e-07
0.000100726
-9.49023e-08
8.0914e-05
4.11054e-05
2.57808e-05
0.000112661
-3.07219e-05
2.08345e-05
0.000113813
1.59886e-05
0.000115085
1.13546e-05
0.000116259
7.09998e-06
0.000116881
3.48312e-06
0.000116058
8.31923e-07
0.000112124
-5.52426e-07
0.00010211
-6.258e-07
8.09874e-05
4.04796e-05
1.97394e-05
0.000117074
-2.41526e-05
1.53316e-05
0.00011822
1.10556e-05
0.000119361
7.05064e-06
0.000120264
3.50659e-06
0.000120425
6.82269e-07
0.000118883
-1.12362e-06
0.00011393
-1.67622e-06
0.000102663
-1.03875e-06
8.03499e-05
3.94408e-05
1.37848e-05
0.000120965
-1.76756e-05
9.93466e-06
0.000122071
6.25402e-06
0.000123041
2.90229e-06
0.000123616
8.58114e-08
0.000123242
-1.93911e-06
0.000120907
-2.90613e-06
0.000114897
-2.65376e-06
0.000102411
-1.36687e-06
7.9063e-05
3.8074e-05
7.96056e-06
0.000124331
-1.13267e-05
4.67863e-06
0.000125353
1.61314e-06
0.000126107
-1.06391e-06
0.000126293
-3.13762e-06
0.000125315
-4.36108e-06
0.000122131
-4.50697e-06
0.000115043
-3.49307e-06
0.000101397
-1.62583e-06
7.71958e-05
3.64481e-05
2.29598e-06
0.000127169
-5.13421e-06
-4.09249e-07
0.000128058
-2.84414e-06
0.000128542
-4.82941e-06
0.000128278
-6.14946e-06
0.000126635
-6.57486e-06
0.000122556
-5.92496e-06
0.000114393
-4.20113e-06
9.9673e-05
-1.8243e-06
7.4819e-05
3.46238e-05
-3.18903e-06
0.000129474
8.83686e-07
-5.3091e-06
0.000130178
-7.1002e-06
0.000130333
-8.38029e-06
0.000129559
-8.94042e-06
0.000127195
-8.57688e-06
0.000122193
-7.163e-06
0.000112979
-4.78597e-06
9.7296e-05
-1.97047e-06
7.20035e-05
3.26534e-05
-8.48328e-06
0.00013124
6.71757e-06
-1.00081e-05
0.000131703
-1.11425e-05
0.000131467
-1.1706e-05
0.000130122
-1.15035e-05
0.000126993
-1.03651e-05
0.000121054
-8.22482e-06
0.000110839
-5.25568e-06
9.43268e-05
-2.07166e-06
6.88194e-05
3.05817e-05
-1.35808e-05
0.000132457
1.23636e-05
-1.44968e-05
0.000132619
-1.49585e-05
0.000131929
-1.47926e-05
0.000129956
-1.38258e-05
0.000126026
-1.19313e-05
0.00011916
-9.11015e-06
0.000108017
-5.61749e-06
9.08342e-05
-2.13562e-06
6.53376e-05
2.84461e-05
-1.84713e-05
1.78257e-05
0.000133103
-1.87487e-05
0.000132896
-1.85087e-05
0.000131689
-1.75944e-05
0.000129042
-1.58649e-05
0.000124296
-1.32468e-05
0.000116542
-9.81103e-06
0.000104582
-5.88226e-06
8.69054e-05
-2.17945e-06
6.16348e-05
2.62666e-05
8.26153e-05
-3.79568e-05
-8.20083e-05
8.34436e-05
-3.15501e-05
8.44663e-05
-2.51753e-05
8.56269e-05
-1.88362e-05
8.68837e-05
-1.25835e-05
8.81887e-05
-6.43922e-06
8.94909e-05
-4.18522e-07
9.07398e-05
5.46864e-06
9.1888e-05
1.12154e-05
1.68333e-05
9.28804e-05
8.33537e-05
-3.83876e-05
-8.29229e-05
8.39777e-05
-3.21741e-05
8.47962e-05
-2.59937e-05
8.57659e-05
-1.98059e-05
8.68488e-05
-1.36664e-05
8.8004e-05
-7.59441e-06
8.9188e-05
-1.60252e-06
9.03576e-05
4.29905e-06
9.14712e-05
1.01018e-05
1.58213e-05
9.24833e-05
8.39817e-05
-3.86164e-05
-8.37529e-05
8.44211e-05
-3.26135e-05
8.50508e-05
-2.66234e-05
8.58396e-05
-2.05947e-05
8.67545e-05
-1.45813e-05
8.7761e-05
-8.60096e-06
8.88232e-05
-2.66467e-06
8.99049e-05
3.21736e-06
9.09709e-05
9.03578e-06
1.48073e-05
9.19848e-05
8.45255e-05
-3.86971e-05
-8.44449e-05
8.48045e-05
-3.28925e-05
8.52645e-05
-2.70835e-05
8.58843e-05
-2.12145e-05
8.6638e-05
-1.5335e-05
8.74983e-05
-9.4612e-06
8.84362e-05
-3.60261e-06
8.94227e-05
2.23084e-06
9.04288e-05
8.0297e-06
1.38104e-05
9.14257e-05
8.4978e-05
-3.86598e-05
-8.50153e-05
8.51221e-05
-3.30365e-05
8.54343e-05
-2.73957e-05
8.59025e-05
-2.16826e-05
8.65077e-05
-1.59403e-05
8.72296e-05
-1.01831e-05
8.80461e-05
-4.41912e-06
8.89346e-05
1.34231e-06
8.9872e-05
7.09232e-06
1.28467e-05
9.08358e-05
8.5339e-05
-3.85192e-05
-8.54796e-05
8.53669e-05
-3.30644e-05
8.55519e-05
-2.75808e-05
8.58874e-05
-2.20182e-05
8.63606e-05
-1.64135e-05
8.69566e-05
-1.07791e-05
8.76594e-05
-5.12188e-06
8.8452e-05
5.49727e-07
8.93166e-05
6.22771e-06
1.19271e-05
9.02361e-05
8.56162e-05
-3.8286e-05
-8.58495e-05
8.55421e-05
-3.29903e-05
8.5617e-05
-2.76557e-05
8.58377e-05
-2.22389e-05
8.61952e-05
-1.6771e-05
8.66792e-05
-1.12631e-05
8.72783e-05
-5.72094e-06
8.79802e-05
-1.52199e-07
8.87718e-05
5.43611e-06
1.10585e-05
8.96405e-05
8.58193e-05
-3.79694e-05
-8.61359e-05
8.56549e-05
-3.28259e-05
8.5634e-05
-2.76347e-05
8.5755e-05
-2.23598e-05
8.60118e-05
-1.70278e-05
8.63971e-05
-1.16484e-05
8.69032e-05
-6.22697e-06
8.75214e-05
-7.70406e-07
8.82423e-05
4.71515e-06
1.02437e-05
8.90572e-05
8.59577e-05
-3.75776e-05
-8.63494e-05
8.57133e-05
-3.25815e-05
8.56084e-05
-2.75299e-05
8.56425e-05
-2.2394e-05
8.58115e-05
-1.71968e-05
8.61103e-05
-1.19472e-05
8.65336e-05
-6.65027e-06
8.70757e-05
-1.31245e-06
8.773e-05
4.06083e-06
9.483e-06
8.84907e-05
8.60407e-05
-3.71184e-05
-8.64999e-05
8.57249e-05
-3.22658e-05
8.5546e-05
-2.7351e-05
8.55042e-05
-2.23521e-05
8.55964e-05
-1.72891e-05
8.58193e-05
-1.21701e-05
8.61693e-05
-7.00026e-06
8.66427e-05
-1.78584e-06
8.72352e-05
3.46832e-06
8.77501e-06
8.79432e-05
8.60766e-05
-3.65985e-05
-8.65965e-05
8.56972e-05
-3.18863e-05
8.54528e-05
-2.71066e-05
8.5344e-05
-2.22434e-05
8.53689e-05
-1.73139e-05
8.55249e-05
-1.23261e-05
8.581e-05
-7.28533e-06
8.62217e-05
-2.19758e-06
8.67575e-05
2.93258e-06
8.11716e-06
8.74153e-05
8.60729e-05
-3.60242e-05
-8.66472e-05
8.56366e-05
-3.14501e-05
8.53341e-05
-2.68042e-05
8.51662e-05
-2.20754e-05
8.51315e-05
-1.72792e-05
8.52285e-05
-1.24231e-05
8.54559e-05
-7.51273e-06
8.58123e-05
-2.554e-06
8.62962e-05
2.44864e-06
7.50639e-06
8.6907e-05
8.60363e-05
-3.54011e-05
-8.66594e-05
8.55493e-05
-3.0963e-05
8.5195e-05
-2.64499e-05
8.49744e-05
-2.18548e-05
8.48868e-05
-1.71917e-05
8.49314e-05
-1.24677e-05
8.51074e-05
-7.68871e-06
8.54141e-05
-2.86073e-06
8.58509e-05
2.01189e-06
6.93943e-06
8.64178e-05
8.59727e-05
-3.47344e-05
-8.66395e-05
8.54402e-05
-3.04305e-05
8.50396e-05
-2.60493e-05
8.47721e-05
-2.15873e-05
8.46374e-05
-1.7057e-05
8.46352e-05
-1.24655e-05
8.47652e-05
-7.81866e-06
8.50271e-05
-3.12268e-06
8.54209e-05
1.61811e-06
6.41305e-06
8.59472e-05
8.58871e-05
-3.40284e-05
-8.65931e-05
8.53139e-05
-2.98572e-05
8.48718e-05
-2.56072e-05
8.45623e-05
-2.12778e-05
8.43855e-05
-1.68802e-05
8.43413e-05
-1.24213e-05
8.44298e-05
-7.9072e-06
8.46513e-05
-3.34413e-06
8.50058e-05
1.26355e-06
5.92421e-06
8.54947e-05
8.5784e-05
-3.32873e-05
-8.65251e-05
8.51742e-05
-2.92474e-05
8.4695e-05
-2.5128e-05
8.43478e-05
-2.09306e-05
8.4133e-05
-1.66654e-05
8.4051e-05
-1.23393e-05
8.41021e-05
-7.95832e-06
8.42868e-05
-3.52881e-06
8.46055e-05
9.44825e-07
5.47005e-06
8.50597e-05
8.56671e-05
-3.25146e-05
-8.64398e-05
8.50245e-05
-2.86048e-05
8.45118e-05
-2.46153e-05
8.41306e-05
-2.05494e-05
8.38817e-05
-1.64164e-05
8.37655e-05
-1.22231e-05
8.37827e-05
-7.97551e-06
8.39339e-05
-3.68e-06
8.42197e-05
6.58965e-07
5.04797e-06
8.46418e-05
8.55397e-05
-3.17135e-05
-8.63407e-05
8.48675e-05
-2.79326e-05
8.43247e-05
-2.40725e-05
8.39129e-05
-2.01376e-05
8.3633e-05
-1.61365e-05
8.34858e-05
-1.20759e-05
8.34721e-05
-7.96182e-06
8.35927e-05
-3.80058e-06
8.38483e-05
4.03311e-07
4.65561e-06
8.42407e-05
8.54044e-05
-3.08869e-05
-8.6231e-05
8.47057e-05
-2.72339e-05
8.41357e-05
-2.35025e-05
8.36961e-05
-1.9698e-05
8.33882e-05
-1.58286e-05
8.32128e-05
-1.19005e-05
8.31709e-05
-7.91994e-06
8.32634e-05
-3.89309e-06
8.34912e-05
1.75493e-07
4.29081e-06
8.3856e-05
8.52638e-05
-3.00373e-05
-8.61134e-05
8.45411e-05
-2.65112e-05
8.39465e-05
-2.29079e-05
8.34818e-05
-1.92333e-05
8.31483e-05
-1.54951e-05
8.29472e-05
-1.16994e-05
8.28795e-05
-7.85224e-06
8.29462e-05
-3.95981e-06
8.31483e-05
-2.662e-08
3.9516e-06
8.34875e-05
8.51198e-05
-2.9167e-05
-8.59901e-05
8.43754e-05
-2.57668e-05
8.37585e-05
-2.2291e-05
8.3271e-05
-1.87458e-05
8.29143e-05
-1.51384e-05
8.26896e-05
-1.14747e-05
8.25983e-05
-7.76086e-06
8.26412e-05
-4.00276e-06
8.28195e-05
-2.04948e-07
3.63621e-06
8.31349e-05
8.4974e-05
-2.82779e-05
-8.58631e-05
8.42101e-05
-2.50028e-05
8.3573e-05
-2.16539e-05
8.30647e-05
-1.82375e-05
8.26867e-05
-1.47605e-05
8.24406e-05
-1.12286e-05
8.23274e-05
-7.64773e-06
8.23485e-05
-4.02378e-06
8.25047e-05
-3.61235e-07
3.34299e-06
8.2798e-05
8.4828e-05
-2.7372e-05
-8.5734e-05
8.40463e-05
-2.42211e-05
8.33908e-05
-2.09984e-05
8.28636e-05
-1.77103e-05
8.24663e-05
-1.43632e-05
8.22004e-05
-1.09627e-05
8.20672e-05
-7.51455e-06
8.2068e-05
-4.02454e-06
8.22038e-05
-4.97068e-07
3.07042e-06
8.24764e-05
8.46829e-05
-2.64507e-05
-8.56042e-05
8.38851e-05
-2.34233e-05
8.32129e-05
-2.03262e-05
8.26684e-05
-1.71658e-05
8.22534e-05
-1.39481e-05
8.19693e-05
-1.06786e-05
8.18177e-05
-7.36291e-06
8.17997e-05
-4.00655e-06
8.19165e-05
-6.13907e-07
2.81711e-06
8.21698e-05
8.45398e-05
-2.55156e-05
-8.5475e-05
8.37274e-05
-2.26109e-05
8.304e-05
-1.96388e-05
8.24797e-05
-1.66055e-05
8.20484e-05
-1.35168e-05
8.17476e-05
-1.03779e-05
8.1579e-05
-7.19421e-06
8.15436e-05
-3.9712e-06
8.16428e-05
-7.1309e-07
2.58178e-06
8.18781e-05
8.43995e-05
-2.45678e-05
-8.53472e-05
8.35738e-05
-2.17852e-05
8.28725e-05
-1.89375e-05
8.22978e-05
-1.60308e-05
8.18515e-05
-1.30705e-05
8.15354e-05
-1.00618e-05
8.1351e-05
-7.00978e-06
8.12996e-05
-3.91975e-06
8.13823e-05
-7.95853e-07
2.36321e-06
8.16009e-05
8.42627e-05
-2.36087e-05
-8.52219e-05
8.3425e-05
-2.09474e-05
8.2711e-05
-1.82235e-05
8.2123e-05
-1.54428e-05
8.16631e-05
-1.26106e-05
8.13328e-05
-9.73153e-06
8.11338e-05
-6.81079e-06
8.10674e-05
-3.85337e-06
8.11349e-05
-8.63341e-07
2.16029e-06
8.13379e-05
8.41301e-05
-2.26392e-05
-8.50996e-05
8.32813e-05
-2.00986e-05
8.25557e-05
-1.74979e-05
8.19557e-05
-1.48428e-05
8.14831e-05
-1.2138e-05
8.11398e-05
-9.38823e-06
8.09273e-05
-6.59833e-06
8.08471e-05
-3.77315e-06
8.09004e-05
-9.1662e-07
1.97198e-06
8.10887e-05
8.4002e-05
-2.16603e-05
-8.49809e-05
8.31432e-05
-1.92398e-05
8.2407e-05
-1.67618e-05
8.17959e-05
-1.42316e-05
8.13117e-05
-1.16538e-05
8.09564e-05
-9.03289e-06
8.07315e-05
-6.37343e-06
8.06384e-05
-3.68009e-06
8.06785e-05
-9.56679e-07
1.79728e-06
8.08532e-05
8.38789e-05
-2.06728e-05
-8.48664e-05
8.30109e-05
-1.83718e-05
8.22651e-05
-1.6016e-05
8.16438e-05
-1.36102e-05
8.1149e-05
-1.1159e-05
8.07825e-05
-8.66645e-06
8.05461e-05
-6.13701e-06
8.04411e-05
-3.57512e-06
8.04689e-05
-9.84442e-07
1.63528e-06
8.06309e-05
8.37611e-05
-1.96776e-05
-8.47564e-05
8.28848e-05
-1.74955e-05
8.21302e-05
-1.52613e-05
8.14995e-05
-1.29795e-05
8.09948e-05
-1.06544e-05
8.06182e-05
-8.28976e-06
8.03711e-05
-5.88993e-06
8.02551e-05
-3.45909e-06
8.02714e-05
-1.00077e-06
1.48511e-06
8.04216e-05
8.36489e-05
-1.86753e-05
-8.46512e-05
8.2765e-05
-1.66116e-05
8.20023e-05
-1.44985e-05
8.1363e-05
-1.23403e-05
8.08494e-05
-1.01407e-05
8.04632e-05
-7.90363e-06
8.02063e-05
-5.63299e-06
8.008e-05
-3.33283e-06
8.00857e-05
-1.00649e-06
1.34596e-06
8.02249e-05
8.35424e-05
-1.76666e-05
-8.45511e-05
8.26516e-05
-1.57209e-05
8.18815e-05
-1.37284e-05
8.12344e-05
-1.16932e-05
8.07124e-05
-9.61878e-06
8.03176e-05
-7.50879e-06
8.00516e-05
-5.36695e-06
7.99158e-05
-3.19707e-06
7.99117e-05
-1.00234e-06
1.21705e-06
8.00406e-05
8.34419e-05
-1.66521e-05
-8.44564e-05
8.25448e-05
-1.48238e-05
8.17679e-05
-1.29515e-05
8.11136e-05
-1.10389e-05
8.0584e-05
-9.08923e-06
8.01812e-05
-7.10592e-06
7.99067e-05
-5.0925e-06
7.97622e-05
-3.05254e-06
7.97489e-05
-9.8905e-07
1.09767e-06
7.98683e-05
8.33473e-05
-1.56323e-05
-8.43671e-05
8.24446e-05
-1.3921e-05
8.16615e-05
-1.21685e-05
8.10006e-05
-1.0378e-05
8.04641e-05
-8.55268e-06
8.00539e-05
-6.69568e-06
7.97717e-05
-4.8103e-06
7.9619e-05
-2.89989e-06
7.95972e-05
-9.67295e-07
9.87104e-07
7.97078e-05
8.32589e-05
-1.46079e-05
-8.42833e-05
8.2351e-05
-1.30131e-05
8.15623e-05
-1.13799e-05
8.08955e-05
-9.7111e-06
8.03525e-05
-8.00974e-06
7.99355e-05
-6.27866e-06
7.96461e-05
-4.52095e-06
7.9486e-05
-2.73974e-06
7.94564e-05
-9.37712e-07
8.84713e-07
7.95588e-05
8.31766e-05
-1.35791e-05
-8.42053e-05
8.2264e-05
-1.21005e-05
8.14703e-05
-1.05862e-05
8.0798e-05
-9.03875e-06
8.02492e-05
-7.46094e-06
7.98259e-05
-5.85542e-06
7.953e-05
-4.22504e-06
7.9363e-05
-2.5727e-06
7.93262e-05
-9.0091e-07
7.89873e-07
7.9421e-05
8.31005e-05
-1.25466e-05
-8.4133e-05
8.21837e-05
-1.11838e-05
8.13855e-05
-9.7879e-06
8.07081e-05
-8.36144e-06
8.0154e-05
-6.90682e-06
7.97251e-05
-5.4265e-06
7.94232e-05
-3.92311e-06
7.92498e-05
-2.39933e-06
7.92063e-05
-8.57462e-07
7.01989e-07
7.92942e-05
8.30306e-05
-1.15108e-05
-8.40665e-05
8.21101e-05
-1.02633e-05
8.13077e-05
-8.9855e-06
8.06259e-05
-7.67963e-06
8.00669e-05
-6.34785e-06
7.96328e-05
-4.9924e-06
7.93254e-05
-3.61568e-06
7.91462e-05
-2.22014e-06
7.90967e-05
-8.07918e-07
6.20493e-07
7.91782e-05
8.29669e-05
-1.04719e-05
-8.40057e-05
8.20431e-05
-9.33944e-06
8.1237e-05
-8.17942e-06
8.05511e-05
-6.99378e-06
7.99878e-05
-5.7845e-06
7.9549e-05
-4.55359e-06
7.92365e-05
-3.30324e-06
7.9052e-05
-2.03566e-06
7.89969e-05
-7.52802e-07
5.44838e-07
7.90726e-05
8.29093e-05
-9.43048e-06
-8.39508e-05
8.19826e-05
-8.41267e-06
8.11732e-05
-7.37005e-06
8.04837e-05
-6.30431e-06
7.99165e-05
-5.2172e-06
7.94734e-05
-4.11054e-06
7.91564e-05
-2.98626e-06
7.89671e-05
-1.84637e-06
7.89069e-05
-6.92619e-07
4.74503e-07
7.89773e-05
8.28579e-05
-8.38682e-06
-8.39016e-05
8.19286e-05
-7.48335e-06
8.11164e-05
-6.5578e-06
8.04237e-05
-5.61164e-06
7.98529e-05
-4.64639e-06
7.9406e-05
-3.66367e-06
7.90849e-05
-2.66519e-06
7.88913e-05
-1.65273e-06
7.88265e-05
-6.27853e-07
4.08979e-07
7.88921e-05
8.28126e-05
-7.34131e-06
-8.38581e-05
8.18811e-05
-6.55185e-06
8.10663e-05
-5.74305e-06
8.03708e-05
-4.91615e-06
7.97969e-05
-4.07247e-06
7.93466e-05
-3.21341e-06
7.90219e-05
-2.34047e-06
7.88244e-05
-1.4552e-06
7.87555e-05
-5.58975e-07
3.47775e-07
7.88167e-05
8.27732e-05
-6.2943e-06
-8.38202e-05
8.18399e-05
-5.61854e-06
8.1023e-05
-4.92618e-06
8.03251e-05
-4.21823e-06
7.97485e-05
-3.49583e-06
7.92952e-05
-2.76017e-06
7.89673e-05
-2.01251e-06
7.87663e-05
-1.25421e-06
7.86937e-05
-4.86444e-07
2.90406e-07
7.87511e-05
8.27398e-05
-5.24613e-06
-8.37879e-05
8.1805e-05
-4.68377e-06
8.09864e-05
-4.10754e-06
8.02864e-05
-3.51826e-06
7.97074e-05
-2.91686e-06
7.92516e-05
-2.30433e-06
7.89208e-05
-1.68174e-06
7.87168e-05
-1.0502e-06
7.86411e-05
-4.10713e-07
2.36399e-07
7.86951e-05
8.27122e-05
-4.19715e-06
-8.37612e-05
8.17763e-05
-3.7479e-06
8.09563e-05
-3.28749e-06
8.02546e-05
-2.81659e-06
7.96737e-05
-2.33592e-06
7.92156e-05
-1.84629e-06
7.88824e-05
-1.34855e-06
7.86758e-05
-8.43601e-07
7.85974e-05
-3.3223e-07
1.85279e-07
7.86485e-05
8.26904e-05
-3.14772e-06
-8.37398e-05
8.17538e-05
-2.81126e-06
8.09327e-05
-2.46638e-06
8.02297e-05
-2.11357e-06
7.96471e-05
-1.75339e-06
7.91873e-05
-1.38644e-06
7.88521e-05
-1.01336e-06
7.86433e-05
-6.34832e-07
7.85625e-05
-2.51448e-07
1.36571e-07
7.86112e-05
8.26743e-05
-2.09818e-06
-8.37239e-05
8.17373e-05
-1.87419e-06
8.09154e-05
-1.64455e-06
8.02114e-05
-1.40957e-06
7.96277e-05
-1.16964e-06
7.91664e-05
-9.25166e-07
7.88296e-05
-6.7658e-07
7.86191e-05
-4.24333e-07
7.85365e-05
-1.68825e-07
8.97899e-08
7.85833e-05
8.26639e-05
-1.04884e-06
-8.37132e-05
8.17267e-05
-9.37011e-07
8.09045e-05
-8.22309e-07
8.01998e-05
-7.04918e-07
7.96152e-05
-5.85039e-07
7.91529e-05
-4.62873e-07
7.8815e-05
-3.38638e-07
7.86032e-05
-2.1256e-07
7.85192e-05
-8.48401e-08
4.44386e-08
7.85646e-05
8.2659e-05
-8.37078e-05
8.1722e-05
8.08997e-05
8.01948e-05
7.96097e-05
7.91469e-05
7.88082e-05
7.85957e-05
7.85108e-05
7.85553e-05
8.18845e-05
2.78833e-06
8.10734e-05
1.26223e-06
8.06745e-05
1.97337e-06
8.07879e-05
3.50102e-06
8.08046e-05
4.36378e-06
8.07117e-05
5.068e-06
8.06052e-05
5.89424e-06
8.04994e-05
6.78715e-06
8.03886e-05
7.71703e-06
8.02765e-05
8.70177e-06
8.01715e-05
9.75753e-06
8.00823e-05
1.08937e-05
8.00192e-05
1.21193e-05
7.99943e-05
1.34437e-05
8.00229e-05
1.48756e-05
8.01231e-05
1.64214e-05
8.03176e-05
1.80825e-05
8.06383e-05
1.98473e-05
8.11506e-05
2.16668e-05
2.33827e-05
8.1621e-05
1.69782e-06
8.11736e-05
1.7097e-06
8.08416e-05
2.30532e-06
8.08797e-05
3.46296e-06
8.08911e-05
4.35239e-06
8.08312e-05
5.12788e-06
8.0761e-05
5.96443e-06
8.06941e-05
6.85404e-06
8.06282e-05
7.78287e-06
8.05676e-05
8.76244e-06
8.052e-05
9.8051e-06
8.04945e-05
1.09193e-05
8.05013e-05
1.21125e-05
8.0553e-05
1.3392e-05
8.06647e-05
1.47639e-05
8.0855e-05
1.62312e-05
8.11466e-05
1.77909e-05
8.15683e-05
1.94256e-05
8.21555e-05
2.10797e-05
2.26153e-05
8.10678e-05
1.19114e-06
8.10088e-05
1.76871e-06
8.08653e-05
2.44883e-06
8.08874e-05
3.44078e-06
8.09134e-05
4.32645e-06
8.0898e-05
5.14329e-06
8.08716e-05
5.99076e-06
8.08475e-05
6.87817e-06
8.08279e-05
7.80251e-06
8.08178e-05
8.77252e-06
8.08251e-05
9.79784e-06
8.08586e-05
1.08857e-05
8.09287e-05
1.20424e-05
8.10476e-05
1.32731e-05
8.12299e-05
1.45816e-05
8.14925e-05
1.59685e-05
8.18556e-05
1.74279e-05
8.23407e-05
1.89404e-05
8.29681e-05
2.04523e-05
2.18305e-05
8.08295e-05
9.42596e-07
8.08525e-05
1.74576e-06
8.0817e-05
2.48432e-06
8.08591e-05
3.39863e-06
8.09071e-05
4.2785e-06
8.09315e-05
5.11882e-06
8.09478e-05
5.97444e-06
8.09665e-05
6.85953e-06
8.0992e-05
7.77702e-06
8.10302e-05
8.73433e-06
8.10887e-05
9.73928e-06
8.11764e-05
1.0798e-05
8.13033e-05
1.19155e-05
8.14809e-05
1.30955e-05
8.17227e-05
1.43399e-05
8.20439e-05
1.56473e-05
8.24614e-05
1.70104e-05
8.29924e-05
1.84094e-05
8.36512e-05
1.97935e-05
2.10368e-05
8.07146e-05
8.25071e-07
8.07562e-05
1.70415e-06
8.07729e-05
2.46762e-06
8.08292e-05
3.34226e-06
8.08942e-05
4.21356e-06
8.09498e-05
5.0632e-06
8.10026e-05
5.92162e-06
8.10599e-05
6.80222e-06
8.11267e-05
7.71022e-06
8.1209e-05
8.65207e-06
8.1314e-05
9.63424e-06
8.14502e-05
1.06618e-05
8.1627e-05
1.17387e-05
8.18552e-05
1.28673e-05
8.21468e-05
1.40482e-05
8.25153e-05
1.52787e-05
8.29749e-05
1.65508e-05
8.35393e-05
1.7845e-05
8.42187e-05
1.91141e-05
2.02402e-05
8.06669e-05
7.69426e-07
8.07082e-05
1.6629e-06
8.07464e-05
2.42937e-06
8.08105e-05
3.2782e-06
8.08869e-05
4.13711e-06
8.09649e-05
4.98523e-06
8.10464e-05
5.84007e-06
8.11362e-05
6.71246e-06
8.12387e-05
7.60772e-06
8.13594e-05
8.53134e-06
8.15051e-05
9.48856e-06
8.16835e-05
1.04835e-05
8.19032e-05
1.1519e-05
8.2174e-05
1.25965e-05
8.25067e-05
1.37155e-05
8.29128e-05
1.48726e-05
8.34043e-05
1.60593e-05
8.39921e-05
1.72572e-05
8.46839e-05
1.84223e-05
1.94445e-05
8.06538e-05
7.40282e-07
8.06909e-05
1.62579e-06
8.07372e-05
2.38312e-06
8.08053e-05
3.21005e-06
8.08893e-05
4.05308e-06
8.09828e-05
4.89177e-06
8.10859e-05
5.73694e-06
8.12016e-05
6.59677e-06
8.13336e-05
7.47576e-06
8.14866e-05
8.37831e-06
8.16666e-05
9.30853e-06
8.18806e-05
1.02696e-05
8.21362e-05
1.12634e-05
8.24421e-05
1.22906e-05
8.28078e-05
1.33498e-05
8.32431e-05
1.44373e-05
8.3758e-05
1.55444e-05
8.43614e-05
1.66538e-05
8.5059e-05
1.77247e-05
1.86541e-05
8.06566e-05
7.2135e-07
8.06912e-05
1.59116e-06
8.07408e-05
2.3335e-06
8.08116e-05
3.13928e-06
8.0901e-05
3.96372e-06
8.10053e-05
4.78744e-06
8.11244e-05
5.61782e-06
8.12602e-05
6.46095e-06
8.14157e-05
7.32026e-06
8.1595e-05
8.19906e-06
8.18031e-05
9.10041e-06
8.20461e-05
1.00265e-05
8.23309e-05
1.09786e-05
8.26649e-05
1.19565e-05
8.30563e-05
1.29584e-05
8.35135e-05
1.39801e-05
8.40447e-05
1.50132e-05
8.46571e-05
1.60414e-05
8.5355e-05
1.70268e-05
1.78732e-05
8.06662e-05
7.05532e-07
8.07006e-05
1.55676e-06
8.07525e-05
2.28155e-06
8.08257e-05
3.06612e-06
8.09193e-05
3.87009e-06
8.10317e-05
4.67509e-06
8.11628e-05
5.48675e-06
8.1314e-05
6.30971e-06
8.14879e-05
7.14638e-06
8.16878e-05
7.9991e-06
8.19183e-05
8.86998e-06
8.21844e-05
9.76046e-06
8.2492e-05
1.0671e-05
8.28477e-05
1.16009e-05
8.32583e-05
1.25478e-05
8.37309e-05
1.35075e-05
8.42723e-05
1.44719e-05
8.48882e-05
1.54255e-05
8.55817e-05
1.63333e-05
1.71055e-05
8.06785e-05
6.89902e-07
8.07141e-05
1.52111e-06
8.07684e-05
2.22724e-06
8.08442e-05
2.99036e-06
8.09417e-05
3.77259e-06
8.10604e-05
4.55641e-06
8.12006e-05
5.34656e-06
8.13636e-05
6.14668e-06
8.15516e-05
6.95838e-06
8.17675e-05
7.78316e-06
8.20152e-05
8.62235e-06
8.22989e-05
9.47669e-06
8.26239e-05
1.03461e-05
8.29955e-05
1.12293e-05
8.34196e-05
1.21238e-05
8.3902e-05
1.30251e-05
8.44483e-05
1.39255e-05
8.50631e-05
1.48107e-05
8.57483e-05
1.56481e-05
1.63538e-05
8.06916e-05
6.7341e-07
8.07291e-05
1.48354e-06
8.07859e-05
2.17042e-06
8.08645e-05
2.91179e-06
8.09657e-05
3.67142e-06
8.10896e-05
4.43249e-06
8.12369e-05
5.19923e-06
8.1409e-05
5.97464e-06
8.16077e-05
6.75966e-06
8.18357e-05
7.55517e-06
8.20962e-05
8.36187e-06
8.23929e-05
9.17992e-06
8.27303e-05
1.00087e-05
8.31128e-05
1.08467e-05
8.35454e-05
1.16911e-05
8.40329e-05
1.25376e-05
8.45798e-05
1.33787e-05
8.51895e-05
1.4201e-05
8.58633e-05
1.49743e-05
1.56206e-05
8.07046e-05
6.55813e-07
8.07442e-05
1.44392e-06
8.08036e-05
2.1111e-06
8.0885e-05
2.83039e-06
8.09896e-05
3.56681e-06
8.11179e-05
4.30415e-06
8.12709e-05
5.04627e-06
8.14498e-05
5.79571e-06
8.16565e-05
6.55295e-06
8.18933e-05
7.31837e-06
8.2163e-05
8.09217e-06
8.24689e-05
8.87407e-06
8.28145e-05
9.6631e-06
8.32037e-05
1.04574e-05
8.36407e-05
1.12542e-05
8.41292e-05
1.20491e-05
8.46729e-05
1.2835e-05
8.52744e-05
1.35995e-05
8.59342e-05
1.43145e-05
1.49076e-05
8.07173e-05
6.37186e-07
8.07588e-05
1.4024e-06
8.08204e-05
2.04946e-06
8.09045e-05
2.74633e-06
8.10122e-05
3.45912e-06
8.11442e-05
4.1721e-06
8.13016e-05
4.88887e-06
8.14857e-05
5.6116e-06
8.16982e-05
6.34043e-06
8.19412e-05
7.07537e-06
8.22172e-05
7.81624e-06
8.25288e-05
8.56242e-06
8.28793e-05
9.31267e-06
8.32717e-05
1.0065e-05
8.37095e-05
1.08165e-05
8.41957e-05
1.15628e-05
8.47332e-05
1.22975e-05
8.5324e-05
1.30087e-05
8.59678e-05
1.36707e-05
1.4216e-05
8.07294e-05
6.17712e-07
8.07726e-05
1.35927e-06
8.08362e-05
1.98582e-06
8.09226e-05
2.65996e-06
8.10329e-05
3.3488e-06
8.11679e-05
4.03706e-06
8.13287e-05
4.72808e-06
8.15166e-05
5.42373e-06
8.17331e-05
6.12391e-06
8.19802e-05
6.82832e-06
8.22599e-05
7.53653e-06
8.25746e-05
8.24766e-06
8.2927e-05
8.96027e-06
8.33198e-05
9.67227e-06
8.37555e-05
1.03807e-05
8.42368e-05
1.10815e-05
8.47657e-05
1.17685e-05
8.53437e-05
1.24307e-05
8.59701e-05
1.30444e-05
1.35467e-05
8.0741e-05
5.97589e-07
8.07854e-05
1.31488e-06
8.08507e-05
1.92057e-06
8.09389e-05
2.57171e-06
8.10514e-05
3.23638e-06
8.11887e-05
3.89972e-06
8.1352e-05
4.56482e-06
8.15424e-05
5.23331e-06
8.17614e-05
5.90487e-06
8.20107e-05
6.579e-06
8.22922e-05
7.25505e-06
8.26079e-05
7.93198e-06
8.296e-05
8.60822e-06
8.33506e-05
9.28162e-06
8.3782e-05
9.94931e-06
8.42562e-05
1.06074e-05
8.47747e-05
1.12499e-05
8.53385e-05
1.1867e-05
8.59464e-05
1.24364e-05
1.29e-05
8.07521e-05
5.77001e-07
8.07974e-05
1.26955e-06