/*--------------------------------*- C++ -*----------------------------------*\
  =========                 |
  \\      /  F ield         | OpenFOAM: The Open Source CFD Toolbox
   \\    /   O peration     | Website:  https://openfoam.org
    \\  /    A nd           | Version:  6
     \\/     M anipulation  |
\*---------------------------------------------------------------------------*/
FoamFile
{
    version     2.0;
    format      ascii;
    class       volVectorField;
    location    "1.3";
    object      U;
}
// * * * * * * * * * * * * * * * * * * * * * * * * * * * * * * * * * * * * * //

dimensions      [0 1 -1 0 0 0 0];

internalField   nonuniform List<vector> 
5600
(
(2.15704 0.00685392 3.73385e-19)
(1.27177 0.00769873 -6.42328e-18)
(0.966356 0.00674182 6.40902e-18)
(1.01653 0.00499364 0)
(1.0559 0.00424236 0)
(1.05084 0.00448899 0)
(1.03945 0.00494428 -1.19599e-17)
(1.03197 0.00535968 1.19327e-17)
(1.02541 0.00582573 0)
(1.01793 0.00640203 0)
(1.0095 0.00708778 0)
(1.0002 0.00788123 0)
(0.989929 0.00879364 0)
(0.978517 0.00984144 -2.35461e-17)
(0.965792 0.0110422 2.34934e-17)
(0.95157 0.0124137 -4.68829e-17)
(0.935648 0.0139692 4.67784e-17)
(0.917813 0.0157062 0)
(0.897855 0.0175829 -3.63846e-19)
(0.875607 0.0194612 0)
(2.17238 0.0122084 -3.68181e-19)
(1.26493 0.0159518 6.33448e-18)
(0.965903 0.0157776 -6.32277e-18)
(1.0206 0.0139052 0)
(1.05874 0.0130722 0)
(1.05252 0.0136017 2.44167e-17)
(1.041 0.0145957 3.61335e-22)
(1.03359 0.0157199 -7.36893e-19)
(1.02703 0.0170661 1.48633e-22)
(1.01957 0.0187103 -2.34976e-17)
(1.01119 0.0206615 0)
(1.00199 0.0229303 -4.75498e-17)
(0.991855 0.0255474 4.67296e-17)
(0.980612 0.0285552 0)
(0.968102 0.0320013 0)
(0.95415 0.0359341 0)
(0.938566 0.0403891 0)
(0.921145 0.0453551 -4.62943e-17)
(0.901683 0.0507088 4.65684e-17)
(0.879924 0.0560941 4.54308e-17)
(2.19062 0.0130699 0)
(1.26175 0.0240769 0)
(0.963583 0.0260527 0)
(1.02246 0.0229965 0)
(1.06112 0.0216885 2.33979e-17)
(1.05462 0.0226056 -2.40933e-17)
(1.04327 0.024184 -1.45806e-18)
(1.03617 0.0259787 -7.27958e-19)
(1.02984 0.0281675 2.32605e-17)
(1.0226 0.0308586 -2.17745e-17)
(1.01448 0.0340598 -1.44951e-18)
(1.00556 0.0377882 4.70402e-17)
(0.995767 0.0420916 -4.76935e-17)
(0.984932 0.0470353 1.44314e-18)
(0.972916 0.0526939 4.61136e-17)
(0.959566 0.0591429 -9.35309e-17)
(0.944711 0.0664369 -1.43746e-18)
(0.928163 0.074556 4.59116e-17)
(0.909723 0.0832976 -1.43266e-18)
(0.88906 0.0920986 -7.15651e-19)
(2.21296 0.0156975 0)
(1.26016 0.030839 -1.44217e-18)
(0.960466 0.0341652 0)
(1.02337 0.0306611 0)
(1.06323 0.0293356 0)
(1.05693 0.0308121 0)
(1.04602 0.0330899 1.43661e-18)
(1.03946 0.0356475 2.43987e-17)
(1.03363 0.0387404 -2.29409e-17)
(1.02684 0.042511 -1.43241e-18)
(1.01918 0.0469716 2.86202e-18)
(1.01079 0.0521474 0)
(1.00157 0.0581034 -4.42749e-17)
(0.991419 0.0649266 4.42313e-17)
(0.980208 0.0727159 4.5614e-17)
(0.967823 0.0815713 -4.5569e-17)
(0.954126 0.0915661 9.24729e-17)
(0.938955 0.102674 -9.09603e-17)
(0.922138 0.114623 1.41989e-18)
(0.903292 0.126666 1.41907e-18)
(2.23903 0.0185876 -5.59479e-18)
(1.25856 0.0365499 7.06672e-18)
(0.956843 0.0406658 -1.13239e-17)
(1.02421 0.0369084 -1.13172e-17)
(1.06549 0.0357842 2.2627e-17)
(1.05953 0.037935 2.26159e-17)
(1.04925 0.0410064 -2.26064e-17)
(1.04343 0.0444174 1.41233e-18)
(1.03828 0.0484823 1.41174e-18)
(1.03213 0.0533693 4.51571e-17)
(1.02514 0.0590932 -9.02761e-17)
(1.01747 0.0656871 1.40964e-18)
(1.00907 0.0732314 4.65093e-17)
(0.999858 0.081832 1.40877e-18)
(0.989752 0.0916084 -4.3654e-17)
(0.978686 0.102682 4.78578e-17)
(0.966563 0.11514 1.40698e-18)
(0.953263 0.128953 0)
(0.938656 0.143781 1.40578e-18)
(0.922344 0.158714 1.40555e-18)
(2.26838 0.0212998 5.47481e-18)
(1.25644 0.0413408 -5.53238e-18)
(0.952786 0.0457686 1.3864e-18)
(1.02531 0.0417021 0)
(1.06817 0.0408976 2.21871e-17)
(1.06261 0.0438367 -2.21917e-17)
(1.05306 0.0477955 1.38727e-18)
(1.04811 0.0521422 -4.71774e-17)
(1.04374 0.0572399 -2.77586e-18)
(1.03836 0.0632699 8.88405e-17)
(1.03218 0.0702448 -4.72059e-17)
(1.0254 0.0782034 -1.38869e-18)
(1.018 0.0872387 -4.72249e-17)
(1.00995 0.0974719 -4.58453e-17)
(1.00121 0.109039 8.75386e-17)
(0.991769 0.122075 8.61665e-17)
(0.981591 0.13668 -9.03524e-17)
(0.970597 0.152818 8.75896e-17)
(0.958714 0.17009 -1.79383e-16)
(0.945556 0.187434 8.76347e-17)
(2.30045 0.0240073 0)
(1.25313 0.0450737 0)
(0.948138 0.0491347 -1.35547e-18)
(1.02687 0.0448041 2.17039e-17)
(1.07149 0.0445642 -2.17231e-17)
(1.06628 0.0484628 -1.35877e-18)
(1.0575 0.0534215 -1.36e-18)
(1.05347 0.0587883 1.36121e-18)
(1.04994 0.0649682 1.36241e-18)
(1.04538 0.0721456 0)
(1.04008 0.0803283 4.50387e-17)
(1.03429 0.0895603 2.17054e-22)
(1.02803 0.0999458 -4.23832e-17)
(1.0213 0.111618 -8.62096e-17)
(1.01414 0.124723 1.75309e-16)
(1.00658 0.139405 -8.63598e-17)
(0.998649 0.155771 8.78076e-17)
(0.990312 0.173781 -8.65102e-17)
(0.981562 0.192986 -8.79601e-17)
(0.972038 0.212203 8.66634e-17)
(2.33451 0.0281211 0)
(1.24694 0.0472127 1.31943e-18)
(0.942495 0.0497528 -2.11695e-17)
(1.02923 0.0459193 2.25287e-17)
(1.07567 0.0468136 -2.12334e-17)
(1.07059 0.0518693 2.39261e-17)
(1.06251 0.0579506 0)
(1.05938 0.0644267 1.33353e-18)
(1.05667 0.0717147 0)
(1.05292 0.0800019 -1.33783e-18)
(1.04852 0.089299 4.28799e-17)
(1.04378 0.0996596 -4.29489e-17)
(1.03875 0.111199 -8.60369e-17)
(1.03348 0.124058 8.4829e-17)
(1.02805 0.138388 0)
(1.02256 0.154337 0)
(1.01709 0.172014 8.65938e-17)
(1.01167 0.191379 1.97697e-22)
(1.00635 0.211963 -8.68731e-17)
(1.0008 0.232524 8.83657e-17)
(2.36988 0.039745 -4.44307e-18)
(1.2335 0.0445329 4.49239e-18)
(0.936101 0.0440498 0)
(1.03373 0.0446487 -1.93898e-18)
(1.08099 0.048077 -2.07283e-17)
(1.07533 0.0543329 -2.20764e-17)
(1.06788 0.0616235 8.33095e-17)
(1.06559 0.069329 -4.30593e-17)
(1.06357 0.0777377 -4.18543e-17)
(1.06057 0.0870593 4.32656e-17)
(1.05708 0.0973452 -8.41105e-17)
(1.05343 0.108667 1.68625e-16)
(1.04969 0.121148 1.88557e-22)
(1.04595 0.134932 -8.47188e-17)
(1.04236 0.150166 0)
(1.03906 0.166992 8.51282e-17)
(1.03619 0.185514 -1.70668e-16)
(1.03385 0.205711 8.55402e-17)
(1.03218 0.227123 0)
(1.03091 0.248474 0)
(2.40825 0.0652399 -5.54879e-18)
(1.20296 0.0277206 4.36628e-18)
(0.934453 0.0269089 0)
(1.04534 0.0417361 2.07629e-17)
(1.08767 0.0497403 -2.01978e-17)
(1.07981 0.0565632 -4.05216e-17)
(1.07322 0.0648901 -3.48058e-22)
(1.07171 0.0739004 8.15634e-17)
(1.07023 0.0833921 -8.18251e-17)
(1.06792 0.0936244 4.10441e-17)
(1.06537 0.104761 -8.23528e-17)
(1.06284 0.116904 8.26187e-17)
(1.06045 0.130175 -8.28862e-17)
(1.0583 0.144707 8.31549e-17)
(1.05658 0.160632 8.3425e-17)
(1.05548 0.17807 -8.36967e-17)
(1.05522 0.197103 0)
(1.056 0.217737 -8.42436e-17)
(1.05807 0.239683 8.45196e-17)
(1.0612 0.261714 8.47719e-17)
(0.847676 0.0211027 0)
(0.809727 0.0233632 0)
(0.764128 0.0259593 4.23584e-17)
(0.708769 0.028949 -2.2992e-17)
(0.64081 0.0323455 -2.51422e-17)
(0.556617 0.0359978 4.15938e-17)
(0.452281 0.0393385 -1.54479e-17)
(0.323974 0.0409804 3.48607e-17)
(0.170154 0.038106 0)
(0.0477296 0.0216841 0)
(0.85266 0.0611212 -1.83793e-17)
(0.815419 0.068003 -5.92403e-17)
(0.77053 0.0759412 -2.13062e-17)
(0.716041 0.0851069 2.31293e-17)
(0.649114 0.0955454 2.52882e-17)
(0.56607 0.106792 -5.57689e-17)
(0.46287 0.117139 4.65889e-17)
(0.335424 0.12233 -8.75658e-17)
(0.181116 0.113454 -1.0028e-17)
(0.0542299 0.0647794 6.4111e-17)
(0.863186 0.100342 1.84552e-17)
(0.827263 0.111666 -1.98287e-17)
(0.783752 0.124763 4.27909e-17)
(0.730958 0.139887 4.64581e-17)
(0.666034 0.157111 -5.08038e-17)
(0.585215 0.175653 -2.80133e-17)
(0.484196 0.192683 3.12114e-17)
(0.358223 0.201119 -5.2806e-17)
(0.202912 0.185898 8.06573e-17)
(0.0672417 0.106321 -1.5243e-16)
(0.879568 0.137911 3.69367e-17)
(0.845475 0.153494 0)
(0.803905 0.171523 0)
(0.753522 0.192293 -4.64931e-17)
(0.691447 0.215906 5.08418e-17)
(0.613781 0.24126 2.12805e-21)
(0.515827 0.264417 0)
(0.391813 0.275572 7.04713e-17)
(0.234935 0.253925 -6.05443e-17)
(0.0863514 0.145054 1.87778e-16)
(0.901464 0.172551 -3.68415e-17)
(0.869647 0.192067 0)
(0.830506 0.214676 8.54054e-17)
(0.783157 0.240665 0)
(0.72466 0.270162 5.06856e-17)
(0.650935 0.301739 5.58934e-17)
(0.556779 0.330379 0)
(0.435117 0.343689 1.4044e-16)
(0.276084 0.315662 -2.01064e-17)
(0.110839 0.179816 -7.01315e-17)
(0.928089 0.203338 2.01486e-21)
(0.898926 0.226344 -1.57353e-16)
(0.862632 0.253075 -2.68869e-21)
(0.818846 0.283749 0)
(0.76453 0.318513 -5.03533e-17)
(0.69538 0.355613 -5.55057e-17)
(0.605594 0.38898 0)
(0.486559 0.403797 -1.39362e-16)
(0.324817 0.369451 -1.59493e-16)
(0.139726 0.209608 2.31648e-17)
(0.95839 0.229629 7.47558e-22)
(0.932164 0.255637 1.10787e-21)
(0.899053 0.28597 1.68128e-16)
(0.859249 0.320737 -1.28421e-21)
(0.809567 0.360087 -9.96728e-17)
(0.745449 0.401922 -1.09829e-16)
(0.660415 0.439146 -3.05605e-17)
(0.544145 0.454696 3.44273e-17)
(0.379201 0.414043 1.18116e-16)
(0.17178 0.233632 2.28471e-16)
(0.991187 0.251076 -1.78675e-21)
(0.968007 0.279633 7.69733e-17)
(0.9383 0.313049 -1.65979e-16)
(0.902769 0.351314 -4.50128e-17)
(0.857993 0.39455 2.45799e-16)
(0.799168 0.440283 1.08283e-16)
(0.719093 0.480407 -1.20426e-16)
(0.605629 0.495818 0)
(0.437114 0.448806 3.87146e-17)
(0.205621 0.251439 -4.03877e-16)
(1.02529 0.267767 -1.23424e-21)
(1.00473 0.29842 -7.57805e-17)
(0.978476 0.33447 4.04027e-21)
(0.947362 0.375717 -8.85553e-17)
(0.907645 0.422206 9.66615e-17)
(0.854346 0.471061 5.31965e-17)
(0.779514 0.513175 5.91242e-17)
(0.669045 0.527609 -3.32399e-17)
(0.496696 0.474145 3.79226e-17)
(0.239886 0.263122 1.75587e-16)
(1.05864 0.281335 -6.93279e-17)
(1.03959 0.313596 -7.43836e-17)
(1.01698 0.351902 8.01357e-17)
(0.990437 0.395648 8.68341e-17)
(0.956062 0.44466 -1.89486e-16)
(0.908758 0.495553 0)
(0.839621 0.538246 0)
(0.732184 0.550325 -3.24919e-17)
(0.55524 0.490007 3.70196e-17)
(0.272481 0.268438 0)
(1.08883 0.302253 6.78023e-17)
(1.07038 0.33559 7.28262e-17)
(1.05135 0.374265 0)
(1.02874 0.418247 -8.51803e-17)
(0.99891 0.466532 0)
(0.956377 0.514918 -1.02486e-16)
(0.891092 0.552709 -5.7004e-17)
(0.784458 0.557593 -6.41715e-17)
(0.601967 0.489377 -1.46661e-16)
(0.29756 0.263791 1.70142e-16)
(1.12087 0.320937 1.63484e-21)
(1.10611 0.354922 -1.4811e-16)
(1.0907 0.393162 2.25798e-21)
(1.07166 0.436131 8.66603e-17)
(1.04538 0.481887 0)
(1.00563 0.525337 1.04338e-16)
(0.941078 0.555302 0)
(0.831403 0.550096 1.30799e-16)
(0.640448 0.472519 1.57327e-20)
(0.316028 0.248882 -1.7363e-16)
(1.15415 0.335521 6.99205e-17)
(1.1436 0.369087 -7.51185e-17)
(1.13172 0.406173 2.43091e-16)
(1.11584 0.447087 -8.79402e-17)
(1.09217 0.489106 -9.61136e-17)
(1.05374 0.526399 -5.29687e-17)
(0.988052 0.547504 2.49325e-21)
(0.873463 0.531674 6.64647e-17)
(0.672971 0.445219 2.66161e-16)
(0.329848 0.227932 4.41737e-17)
(1.18846 0.345129 -1.41506e-16)
(1.18179 0.37755 0)
(1.17309 0.412719 -4.63526e-21)
(1.15974 0.450556 8.90237e-17)
(1.13763 0.487724 2.43319e-16)
(1.09908 0.517885 5.36475e-17)
(1.0306 0.529591 1.19503e-16)
(0.909588 0.503428 -1.01057e-16)
(0.698813 0.409692 -1.92844e-16)
(0.338894 0.202917 1.7933e-16)
(1.22307 0.349437 7.14233e-17)
(1.21974 0.380035 7.67399e-17)
(1.21358 0.412538 -1.65614e-16)
(1.20187 0.446364 -4.49529e-17)
(1.18005 0.477702 -1.96605e-16)
(1.13971 0.499928 -1.62605e-16)
(1.0666 0.501945 -2.41536e-16)
(0.93764 0.466125 1.36227e-16)
(0.716138 0.367273 0)
(0.342514 0.175096 -2.04185e-16)
(1.25699 0.348244 1.07868e-16)
(1.25627 0.376395 0)
(1.2518 0.40555 0)
(1.24061 0.434579 0)
(1.21758 0.459338 0)
(1.17368 0.473145 1.09217e-16)
(1.09414 0.465574 1.21702e-16)
(0.955909 0.421199 0)
(0.723784 0.319722 0)
(0.340496 0.145767 -9.1539e-17)
(1.28915 0.341573 -3.61091e-17)
(1.29016 0.366734 -8.95981e-22)
(1.28632 0.391956 -4.18737e-17)
(1.27431 0.415581 4.54681e-17)
(1.24847 0.433284 -4.97299e-17)
(1.19924 0.438552 1.37146e-16)
(1.11166 0.421931 -3.05702e-17)
(0.96328 0.370514 6.89929e-17)
(0.721304 0.269065 -1.97687e-17)
(0.333029 0.116212 9.20486e-17)
(1.31849 0.329682 7.23321e-17)
(1.3202 0.351414 -3.88606e-17)
(1.31574 0.372244 0)
(1.30145 0.390057 -4.55442e-17)
(1.27115 0.400513 0)
(1.21494 0.39748 -5.49538e-17)
(1.11803 0.372737 -3.06222e-17)
(0.959212 0.316112 3.45584e-17)
(0.708843 0.217342 0)
(0.320602 0.0875928 -1.1529e-17)
(1.34397 0.313033 -5.41889e-17)
(1.34523 0.331024 3.88167e-17)
(1.33887 0.347148 0)
(1.32084 0.358938 0)
(1.28456 0.362213 4.97532e-17)
(1.22005 0.351428 -2.74435e-17)
(1.11303 0.319818 -3.05845e-17)
(0.94408 0.260045 -6.90353e-17)
(0.68729 0.166506 3.95623e-17)
(0.303989 0.0609256 -5.18072e-17)
(1.36492 0.292263 5.39868e-17)
(1.3647 0.306222 -5.88607e-22)
(1.3552 0.317335 -2.08649e-17)
(1.33205 0.322949 0)
(1.28839 0.319248 -2.47774e-17)
(1.2144 0.301506 -1.36642e-17)
(1.09678 0.264619 3.80701e-17)
(0.918326 0.204074 8.59143e-18)
(0.657338 0.118331 -4.43039e-17)
(0.283719 0.0370842 5.1559e-17)
(1.10361 0.278095 -4.1738e-16)
(1.13313 0.294905 1.03243e-16)
(1.16317 0.308475 0)
(1.19412 0.317827 1.02122e-16)
(1.22562 0.322685 -3.44439e-23)
(1.25674 0.322864 -1.56133e-18)
(1.2866 0.318326 7.76706e-19)
(1.31428 0.309228 -4.98875e-17)
(1.33893 0.295894 4.97301e-17)
(1.3598 0.278894 -2.46184e-17)
(1.11431 0.265626 2.0815e-16)
(1.1415 0.279696 0)
(1.16902 0.291197 0)
(1.1973 0.299247 1.00388e-16)
(1.22627 0.303536 1.56953e-18)
(1.2551 0.303892 -7.79967e-19)
(1.28299 0.300264 7.76013e-19)
(1.30919 0.292754 4.86913e-17)
(1.33298 0.281594 -4.93117e-17)
(1.35353 0.267306 2.46033e-17)
(1.12449 0.255094 0)
(1.14905 0.266905 -1.02879e-16)
(1.17404 0.276327 1.01946e-16)
(1.19973 0.282911 -1.01141e-16)
(1.2262 0.286376 0)
(1.25272 0.28657 -7.80271e-19)
(1.2786 0.283444 -9.86165e-17)
(1.30322 0.277067 0)
(1.32597 0.26761 0)
(1.346 0.255536 -2.46309e-17)
(1.13343 0.244884 0)
(1.15579 0.254686 1.20682e-21)
(1.17849 0.262332 -1.01863e-16)
(1.20177 0.267629 1.01102e-16)
(1.22585 0.270341 7.84769e-19)
(1.25009 0.270338 -1.00685e-16)
(1.27395 0.267577 -2.75296e-22)
(1.29689 0.262104 0)
(1.31847 0.254045 0)
(1.33779 0.243798 0)
(1.14081 0.234893 -1.03483e-16)
(1.16131 0.243049 2.05213e-16)
(1.18203 0.249247 7.95137e-19)
(1.20322 0.253458 -1.01854e-16)
(1.22513 0.2555 -7.84779e-19)
(1.24728 0.255278 -9.9939e-17)
(1.26921 0.252763 1.50051e-16)
(1.2905 0.247987 -3.87411e-19)
(1.31082 0.241049 -4.90756e-17)
(1.32929 0.232286 -2.4687e-17)
(1.14669 0.225088 2.06577e-16)
(1.16557 0.231938 -1.02471e-16)
(1.18458 0.236992 1.01695e-16)
(1.20396 0.24032 1.00237e-16)
(1.22398 0.241798 1.02024e-16)
(1.24426 0.241363 9.91921e-17)
(1.26443 0.239007 -4.97885e-17)
(1.28416 0.234762 -3.87737e-19)
(1.30322 0.228709 3.86512e-19)
(1.32077 0.221139 2.47147e-17)
(1.15125 0.215464 -1.03497e-16)
(1.16868 0.221259 -1.01934e-16)
(1.18619 0.225413 -1.01612e-16)
(1.20402 0.228044 -1.00988e-16)
(1.2224 0.229072 -9.96707e-17)
(1.24102 0.228464 9.84446e-17)
(1.25962 0.226227 -4.90409e-17)
(1.27792 0.222397 0)
(1.29576 0.217048 9.91241e-17)
(1.31238 0.210439 0)
(1.15464 0.206042 0)
(1.17077 0.210971 1.02199e-16)
(1.18696 0.214412 -1.01529e-16)
(1.20344 0.216501 7.88665e-19)
(1.22039 0.217186 -1.02026e-16)
(1.23758 0.216452 -1.00041e-16)
(1.25478 0.214321 5.0629e-17)
(1.27178 0.210831 -4.97146e-17)
(1.28848 0.206054 -9.92245e-17)
(1.30418 0.200226 0)
(1.15702 0.196847 -1.02706e-16)
(1.17198 0.201061 0)
(1.18701 0.203936 1.01446e-16)
(1.2023 0.205605 1.01701e-16)
(1.21801 0.206035 1.26926e-22)
(1.23394 0.205222 9.92936e-17)
(1.24992 0.203195 0)
(1.26576 0.199996 4.97562e-17)
(1.28141 0.195695 4.98564e-17)
(1.29623 0.19051 -2.49928e-17)
(1.15853 0.187899 1.02514e-16)
(1.17244 0.191523 -1.01929e-16)
(1.18644 0.193947 1.01362e-16)
(1.20068 0.195292 -1.00086e-16)
(1.21531 0.195537 1.99347e-16)
(1.23014 0.194684 -9.85452e-17)
(1.24503 0.192766 -7.79877e-19)
(1.25984 0.189824 -3.89045e-19)
(1.27454 0.185928 -4.93246e-17)
(1.28853 0.181282 2.48271e-17)
(1.15931 0.179218 0)
(1.17229 0.182354 1.01795e-16)
(1.18536 0.184416 -1.0128e-16)
(1.19868 0.185512 -7.87777e-19)
(1.21235 0.185626 -9.88897e-17)
(1.22621 0.184765 -7.82378e-19)
(1.24014 0.182959 -7.80344e-19)
(1.25403 0.180252 7.78758e-19)
(1.26786 0.176709 4.97632e-17)
(1.28109 0.172522 2.48554e-17)
(1.15949 0.170816 1.02529e-16)
(1.17163 0.173548 -3.97115e-19)
(1.18387 0.17532 0)
(1.19636 0.176224 0)
(1.20918 0.176249 7.84838e-19)
(1.22218 0.175402 -5.1654e-17)
(1.23526 0.173713 1.34615e-23)
(1.24833 0.171221 5.02718e-17)
(1.26138 0.167991 3.89173e-19)
(1.27391 0.164202 -2.48835e-17)
(1.15917 0.162703 -1.0194e-16)
(1.17055 0.165101 -1.01526e-16)
(1.18205 0.166639 -1.01114e-16)
(1.1938 0.167396 -7.87184e-19)
(1.20585 0.167362 1.32926e-23)
(1.21809 0.166545 5.01057e-17)
(1.23041 0.164974 7.8132e-19)
(1.24274 0.162683 1.01132e-22)
(1.25508 0.159733 0)
(1.26697 0.156294 0)
(1.15845 0.154884 -1.02147e-16)
(1.16915 0.157004 2.03182e-16)
(1.17998 0.158354 1.01031e-16)
(1.19107 0.158998 0)
(1.20243 0.158928 -9.96769e-17)
(1.21397 0.158153 4.93395e-17)
(1.22561 0.156698 0)
(1.23727 0.154594 -5.03564e-17)
(1.24897 0.151899 -2.45676e-17)
(1.26027 0.14877 0)
(1.15741 0.147358 1.01957e-16)
(1.1675 0.149248 -1.01655e-16)
(1.17772 0.150446 0)
(1.1882 0.151004 9.98976e-17)
(1.19895 0.150915 1.00463e-16)
(1.20986 0.150189 -1.00279e-16)
(1.22089 0.148847 -4.92835e-17)
(1.23195 0.146917 0)
(1.24306 0.144453 2.49828e-17)
(1.25381 0.141603 0)
(1.15612 0.140125 1.01371e-16)
(1.16565 0.141824 0)
(1.17532 0.142898 0)
(1.18526 0.14339 -9.986e-17)
(1.19544 0.143295 -1.1145e-23)
(1.20579 0.142621 4.85893e-17)
(1.21625 0.141388 5.08794e-17)
(1.22676 0.13962 -3.91015e-19)
(1.23733 0.137368 1.95381e-19)
(1.24759 0.134768 1.95291e-19)
(1.15463 0.13318 -2.02366e-16)
(1.16366 0.134718 1.00994e-16)
(1.17283 0.135692 7.87364e-19)
(1.18227 0.136134 -7.86006e-19)
(1.19194 0.136041 -5.02319e-17)
(1.20177 0.135421 0)
(1.21172 0.134291 0)
(1.22173 0.132674 5.00925e-17)
(1.23181 0.130615 0)
(1.24161 0.128243 0)
(1.153 0.126514 1.0139e-16)
(1.16157 0.127919 -1.01255e-16)
(1.17029 0.12881 7.8672e-19)
(1.17927 0.129215 -1.02141e-16)
(1.18847 0.12913 5.10171e-17)
(1.19783 0.128564 0)
(1.20732 0.127532 -7.83721e-19)
(1.21686 0.126054 -4.9743e-17)
(1.22648 0.124172 1.95779e-19)
(1.23585 0.122007 1.95737e-19)
(1.15125 0.12012 -1.01202e-16)
(1.15941 0.121412 3.93475e-19)
(1.16772 0.122236 -1.00618e-16)
(1.17628 0.122612 1.00532e-16)
(1.18505 0.12254 7.84877e-19)
(1.19399 0.122027 -7.84496e-19)
(1.20304 0.121086 4.94052e-17)
(1.21216 0.119737 7.84021e-19)
(1.22136 0.118017 0)
(1.23034 0.11604 0)
(1.14943 0.113988 -3.92751e-19)
(1.15721 0.115184 1.0099e-16)
(1.16514 0.115951 1.00536e-16)
(1.17332 0.116307 -1.01278e-16)
(1.1817 0.11625 5.10176e-17)
(1.19024 0.115788 0)
(1.1989 0.114933 -5.02203e-17)
(1.20763 0.113702 -3.92337e-19)
(1.21644 0.112131 3.92351e-19)
(1.22505 0.110325 0)
(1.14757 0.108107 3.92601e-19)
(1.155 0.109221 -1.00858e-16)
(1.16259 0.109941 -1.00454e-16)
(1.17041 0.110281 1.00455e-16)
(1.17844 0.110242 -1.00466e-16)
(1.18661 0.109828 0)
(1.1949 0.109052 0)
(1.20327 0.107931 -3.92669e-19)
(1.21172 0.106496 -2.49396e-17)
(1.21999 0.104847 2.53367e-17)
(1.14568 0.102466 9.98586e-17)
(1.15279 0.103508 -9.99417e-17)
(1.16006 0.104189 1.00372e-16)
(1.16757 0.104518 -5.09929e-17)
(1.17526 0.104495 7.84923e-19)
(1.1831 0.104128 0)
(1.19106 0.103426 -5.02823e-17)
(1.19909 0.102405 -3.93001e-19)
(1.2072 0.101095 2.55548e-17)
(1.21515 0.0995886 -2.51691e-17)
(1.14379 0.097052 0)
(1.15061 0.0980332 1.00203e-16)
(1.15759 0.0986802 -1.00289e-16)
(1.1648 0.0990004 5.09735e-17)
(1.17219 0.0989951 4.94483e-17)
(1.17972 0.0986708 0)
(1.18736 0.0980374 4.95272e-17)
(1.19508 0.0971086 3.93341e-19)
(1.20288 0.0959134 1.96779e-19)
(1.21054 0.0945376 1.9686e-19)
(1.1419 0.0918551 3.90158e-19)
(1.14846 0.092782 -3.90906e-19)
(1.15518 0.0933994 1.00207e-16)
(1.16211 0.0937131 7.83903e-19)
(1.16922 0.0937247 -5.02333e-17)
(1.17647 0.0934406 4.95061e-17)
(1.18382 0.0928703 -4.95577e-17)
(1.19125 0.0920265 2.40137e-17)
(1.19876 0.0909364 5.90934e-19)
(1.20615 0.0896802 -1.97086e-19)
(1.14004 0.0868633 9.93075e-17)
(1.14636 0.0877417 3.90396e-19)
(1.15283 0.088333 0)
(1.15951 0.0886414 0)
(1.16636 0.088669 2.38121e-23)
(1.17335 0.0884223 -5.03087e-17)
(1.18044 0.08791 9.99636e-17)
(1.1876 0.0871443 3.94021e-19)
(1.19484 0.0861507 1.97182e-19)
(1.20197 0.0850042 1.28253e-17)
(1.13822 0.0820654 -9.91251e-17)
(1.14431 0.0829 -3.89886e-19)
(1.15056 0.0834676 -5.00215e-17)
(1.15701 0.0837714 0)
(1.16362 0.083814 5.02335e-17)
(1.17036 0.0836016 0)
(1.17721 0.0831428 -4.96188e-17)
(1.18412 0.0824488 -2.64204e-17)
(1.19111 0.0815437 3.94764e-19)
(1.198 0.0804977 1.41117e-23)
(1.13644 0.0774503 -9.97189e-17)
(1.14233 0.0782447 3.89377e-19)
(1.14837 0.0787904 4.99806e-17)
(1.1546 0.07909 -7.83002e-19)
(1.161 0.0791462 7.84902e-19)
(1.16751 0.0789654 0)
(1.17413 0.0785555 -7.88083e-19)
(1.18081 0.0779274 3.94674e-19)
(1.18757 0.0771037 1.97586e-19)
(1.19423 0.0761499 -1.24593e-17)
(1.13472 0.0730074 9.87615e-17)
(1.14041 0.0737644 3.88869e-19)
(1.14626 0.0742895 -7.80303e-19)
(1.1523 0.0745848 1.56541e-18)
(1.15849 0.0746532 -7.84902e-19)
(1.1648 0.0745011 0)
(1.1712 0.0741361 -2.52343e-17)
(1.17767 0.0735684 0)
(1.18421 0.0728194 0)
(1.19067 0.0719503 1.26716e-17)
(1.13305 0.0687263 4.94835e-17)
(1.13857 0.069448 0)
(1.14425 0.0699534 0)
(1.1501 0.070244 -7.82399e-19)
(1.1561 0.0703231 -4.94486e-17)
(1.16222 0.0701969 0)
(1.16843 0.0698729 2.60389e-17)
(1.1747 0.0693606 -1.18602e-18)
(1.18104 0.0686803 3.95981e-19)
(1.1873 0.0678891 -1.26862e-17)
(1.13145 0.0645972 -9.91717e-17)
(1.13681 0.0652851 3.87857e-19)
(1.14232 0.0657711 7.79025e-19)
(1.14801 0.0660565 -5.16186e-17)
(1.15384 0.0661447 1.02037e-16)
(1.15978 0.0660419 -7.87391e-19)
(1.1658 0.0657552 2.52655e-17)
(1.17189 0.0652938 -3.95672e-19)
(1.17804 0.0646766 1.98196e-19)
(1.18412 0.063957 1.98452e-19)
(1.12991 0.0606103 4.89175e-17)
(1.13513 0.0612656 3.87352e-19)
(1.14049 0.0617323 0)
(1.14603 0.0620118 4.92533e-17)
(1.15169 0.0621076 -4.94485e-17)
(1.15747 0.0620256 2.52048e-17)
(1.16332 0.0617728 2.09643e-24)
(1.16924 0.061358 -3.96008e-19)
(1.17522 0.0607988 3.96796e-19)
(1.18113 0.0601451 0)
(1.12845 0.0567564 -3.84471e-19)
(1.13353 0.0573797 3.86848e-19)
(1.13876 0.0578272 0)
(1.14415 0.0580999 -5.00158e-17)
(1.14967 0.0582016 7.84892e-19)
(1.15529 0.0581382 -5.12143e-17)
(1.16099 0.0579161 -2.52966e-17)
(1.16675 0.0575439 -2.57625e-17)
(1.17256 0.0570381 1.98604e-19)
(1.17832 0.0564451 1.98912e-19)
(1.12706 0.0530266 -4.95065e-17)
(1.13202 0.0536184 4.98383e-17)
(1.13712 0.0540463 0)
(1.14238 0.0543114 5.07776e-17)
(1.14776 0.0544175 -7.84896e-19)
(1.15324 0.0543702 2.52216e-17)
(1.1588 0.054176 0)
(1.16442 0.0538427 2.4991e-17)
(1.17008 0.0533861 5.96419e-19)
(1.17569 0.052849 -1.99142e-19)
(1.12575 0.0494123 4.86501e-17)
(1.13059 0.0499728 3.85799e-19)
(1.13558 0.0503807 7.76473e-19)
(1.14072 0.0506372 -7.80894e-19)
(1.14597 0.0507462 0)
(1.15132 0.050713 2.523e-17)
(1.15675 0.0505439 -2.61194e-17)
(1.16223 0.0502462 2.58063e-17)
(1.16775 0.0498348 1.99013e-19)
(1.17324 0.0493493 1.29592e-17)
(1.12451 0.0459053 -4.89438e-17)
(1.12925 0.0464345 -4.93236e-17)
(1.13414 0.046822 0)
(1.13916 0.0470689 0)
(1.1443 0.0471792 0)
(1.14953 0.0471581 -5.04767e-17)
(1.15484 0.0470115 7.91981e-19)
(1.1602 0.0467465 -2.6623e-17)
(1.16559 0.0463767 3.98435e-19)
(1.17095 0.0459389 -1.27747e-17)
(1.12336 0.0424976 -3.81632e-19)
(1.12801 0.0429954 3.84841e-19)
(1.13279 0.0433619 -7.75199e-19)
(1.13771 0.0435984 7.80287e-19)
(1.14275 0.0437086 7.84881e-19)
(1.14787 0.0436977 -7.88959e-19)
(1.15306 0.0435712 2.45667e-17)
(1.1583 0.043336 3.977e-19)
(1.16358 0.0430045 3.98847e-19)
(1.16882 0.0426108 0)
(1.12229 0.0391816 4.8385e-17)
(1.12685 0.0396478 3.84342e-19)
(1.13154 0.0399927 2.47861e-17)
(1.13637 0.0402177 7.79978e-19)
(1.14131 0.0403265 -5.01983e-24)
(1.14633 0.0403241 -7.8922e-19)
(1.15142 0.0402156 0)
(1.15656 0.0400075 0)
(1.16172 0.0397114 1.27763e-17)
(1.16686 0.0393586 0)
(1.12129 0.0359501 3.80291e-19)
(1.12578 0.0363844 -3.83844e-19)
(1.13039 0.036707 -2.55397e-17)
(1.13513 0.0369196 4.81646e-24)
(1.13998 0.0370257 7.84878e-19)
(1.14491 0.03703 2.52634e-17)
(1.14991 0.0369376 2.53905e-17)
(1.15495 0.0367543 -3.98373e-19)
(1.16001 0.0364909 -1.23898e-17)
(1.16505 0.0361759 0)
(1.12038 0.032796 -3.79602e-19)
(1.12479 0.0331979 3.83346e-19)
(1.12934 0.0334976 -2.47454e-17)
(1.134 0.0336968 0)
(1.13877 0.033799 0)
(1.14361 0.0338087 0)
(1.14852 0.0337304 -2.54061e-17)
(1.15347 0.0335698 -1.31576e-17)
(1.15845 0.0333365 4.00087e-19)
(1.1634 0.0330567 0)
(1.11955 0.0297125 -3.78914e-19)
(1.1239 0.0300815 3.8285e-19)
(1.12837 0.0303577 2.39525e-17)
(1.13297 0.0305426 4.62873e-24)
(1.13766 0.0306398 7.84869e-19)
(1.14243 0.0306534 0)
(1.14727 0.0305876 7.94429e-19)
(1.15213 0.0304477 1.15726e-17)
(1.15703 0.0302424 -1.24155e-17)
(1.1619 0.0299953 0)
(1.1188 0.0266929 0)
(1.12309 0.0270285 2.44706e-17)
(1.12751 0.0272804 2.47048e-17)
(1.13204 0.0274503 -7.7876e-19)
(1.13667 0.0275414 7.84863e-19)
(1.14137 0.0275576 0)
(1.14613 0.0275029 1.35137e-17)
(1.15093 0.0273819 -1.19819e-18)
(1.15574 0.0272026 1.30298e-17)
(1.16054 0.0269861 2.01005e-19)
(1.11813 0.0237308 -3.77544e-19)
(1.12237 0.0240325 -2.40571e-17)
(1.12673 0.0242595 -2.39131e-17)
(1.13121 0.0244135 -4.4779e-24)
(1.13578 0.0244976 -7.84857e-19)
(1.14042 0.0245153 0)
(1.14512 0.0244703 -1.3522e-17)
(1.14985 0.0243667 3.9974e-19)
(1.1546 0.0242116 6.02e-19)
(1.15933 0.0240236 -2.0124e-19)
(1.11754 0.0208199 3.76862e-19)
(1.12173 0.0210869 -3.81366e-19)
(1.12605 0.0212884 0)
(1.13048 0.0214258 0)
(1.13499 0.0215021 0)
(1.13958 0.0215204 -1.26526e-17)
(1.14422 0.0214839 -1.27345e-17)
(1.1489 0.0213962 -4.00077e-19)
(1.15359 0.0212637 2.00877e-19)
(1.15826 0.0211026 2.01475e-19)
(1.11703 0.0179538 -3.76182e-19)
(1.12118 0.0181857 3.80874e-19)
(1.12546 0.018361 1.30921e-17)
(1.12984 0.0184813 -1.32234e-17)
(1.13431 0.018549 0)
(1.13885 0.0185669 2.53134e-17)
(1.14345 0.0185379 1.27423e-17)
(1.14807 0.018465 6.00631e-18)
(1.15271 0.0183537 -6.2336e-18)
(1.15733 0.0182179 2.01712e-19)
(1.11659 0.0151262 -1.23916e-17)
(1.12071 0.0153226 1.25526e-17)
(1.12495 0.0154714 -1.23119e-17)
(1.1293 0.0155739 2.41037e-17)
(1.13373 0.0156325 7.84837e-19)
(1.13823 0.0156493 -2.53218e-17)
(1.14278 0.0156268 6.3751e-18)
(1.14736 0.0155676 -6.81298e-18)
(1.15196 0.0154763 6.84398e-18)
(1.15654 0.0153644 0)
(1.11622 0.0123311 1.23693e-17)
(1.12032 0.0124915 -3.79894e-19)
(1.12454 0.0126134 -7.68857e-19)
(1.12885 0.0126979 -1.16585e-17)
(1.13326 0.0127468 0)
(1.13772 0.0127619 1.2665e-17)
(1.14224 0.0127452 -7.17642e-18)
(1.14678 0.0126988 -5.21439e-18)
(1.15133 0.0126262 -6.04511e-19)
(1.15588 0.0125371 2.02186e-19)
(1.11593 0.00956242 -1.19729e-17)
(1.12001 0.00968672 -2.17597e-24)
(1.12421 0.00978151 7.68225e-19)
(1.1285 0.00984764 -1.55385e-18)
(1.13288 0.00988643 1.56964e-18)
(1.13731 0.00989932 -7.12642e-18)
(1.1418 0.00988768 5.58511e-18)
(1.14631 0.00985311 3.61306e-18)
(1.15084 0.00979841 3.83256e-18)
(1.15535 0.00973082 -2.02423e-19)
(1.11572 0.00681415 1.15779e-17)
(1.11978 0.00690218 -1.17462e-17)
(1.12396 0.00696969 0)
(1.12824 0.00701719 0)
(1.13259 0.00704552 7.84808e-19)
(1.13701 0.00705562 5.54459e-18)
(1.14147 0.00704843 -6.38693e-18)
(1.14596 0.00702503 2.81256e-18)
(1.15046 0.00698735 -3.02886e-18)
(1.15495 0.0069405 2.02662e-19)
(1.11557 0.00408041 3.72809e-19)
(1.11963 0.00413193 -3.78424e-19)
(1.1238 0.00417185 3.06786e-18)
(1.12806 0.00420033 -7.76311e-19)
(1.13241 0.00421773 3.13921e-18)
(1.13681 0.00422454 -2.37703e-18)
(1.14126 0.00422126 0)
(1.14573 0.00420847 -4.02138e-19)
(1.15021 0.00418729 4.04272e-19)
(1.15469 0.00416064 -8.116e-19)
(1.1155 0.00135715 -3.73167e-19)
(1.11956 0.00137313 3.79012e-19)
(1.12372 0.0013858 -3.84289e-18)
(1.12798 0.00139509 7.7834e-19)
(1.13231 0.00140105 -1.57441e-18)
(1.13671 0.0014038 1.59018e-18)
(1.14115 0.00140345 0)
(1.14561 0.00140014 -4.03789e-19)
(1.15009 0.00139419 2.03013e-19)
(1.15455 0.00138649 1.01906e-18)
(2.44188 0.0606384 0)
(1.16504 0.00797871 0)
(0.948906 0.015678 0)
(1.06469 0.0424272 0)
(1.09264 0.0523547 0)
(1.08198 0.0582144 0)
(1.07711 0.0667111 0)
(1.07636 0.0763551 0)
(1.07521 0.0862633 0)
(1.07352 0.0967326 0)
(1.07183 0.10804 0)
(1.07031 0.120296 0)
(1.06905 0.133599 0)
(1.06819 0.148065 0)
(1.06792 0.163808 0)
(1.06844 0.180919 0)
(1.07004 0.199447 0)
(1.07311 0.219332 0)
(1.07815 0.240237 0)
(1.08477 0.260757 0)
(2.45292 0.0376942 0)
(1.14084 0.0148066 0)
(0.953854 0.0226658 0)
(1.07287 0.0423225 0)
(1.09413 0.0520442 0)
(1.08284 0.0590813 0)
(1.07933 0.0678097 0)
(1.07921 0.0773972 0)
(1.07847 0.0873014 0)
(1.07738 0.0977436 0)
(1.07644 0.108934 0)
(1.07574 0.120971 0)
(1.07538 0.133939 0)
(1.0755 0.14793 0)
(1.0763 0.163026 0)
(1.07798 0.179283 0)
(1.08084 0.196696 0)
(1.08522 0.215113 0)
(1.09157 0.233973 0)
(1.09892 0.251639 0)
(2.45775 0.0210202 0)
(1.12669 0.0202913 0)
(0.951911 0.0281052 0)
(1.07421 0.0417079 0)
(1.09369 0.0513603 0)
(1.08275 0.0595418 0)
(1.08036 0.0684622 0)
(1.08095 0.077947 0)
(1.08081 0.0878007 0)
(1.08041 0.0981674 0)
(1.08022 0.10919 0)
(1.08032 0.120953 0)
(1.08081 0.133528 0)
(1.08183 0.146985 0)
(1.08358 0.161375 0)
(1.08625 0.17672 0)
(1.09009 0.192974 0)
(1.09541 0.209936 0)
(1.10255 0.227005 0)
(1.11068 0.242679 0)
(2.46114 0.0135362 0)
(1.11902 0.0206783 0)
(0.948509 0.029215 0)
(1.07311 0.0406483 0)
(1.09241 0.0504911 0)
(1.08196 0.0593693 0)
(1.08048 0.0684823 0)
(1.08183 0.0779619 0)
(1.08236 0.0877873 0)
(1.08267 0.0980654 0)
(1.08322 0.108906 0)
(1.08409 0.120383 0)
(1.08538 0.132559 0)
(1.08722 0.145483 0)
(1.0898 0.159186 0)
(1.0933 0.173662 0)
(1.09794 0.188843 0)
(1.10397 0.20452 0)
(1.11166 0.22013 0)
(1.12038 0.234265 0)
(2.46423 0.0103612 0)
(1.11497 0.0197272 0)
(0.945792 0.0287507 0)
(1.07168 0.0393998 0)
(1.09102 0.0493303 0)
(1.08093 0.0585947 0)
(1.08012 0.0678845 0)
(1.08214 0.077402 0)
(1.08332 0.0872006 0)
(1.0843 0.0973747 0)
(1.08555 0.108017 0)
(1.08713 0.119196 0)
(1.08914 0.130961 0)
(1.09172 0.143348 0)
(1.09502 0.156372 0)
(1.09922 0.170011 0)
(1.10451 0.184184 0)
(1.11109 0.198687 0)
(1.11917 0.213 0)
(1.12827 0.225802 0)
(2.4674 0.008997 0)
(1.11304 0.0188908 0)
(0.944045 0.0279702 0)
(1.07057 0.0381247 0)
(1.0899 0.0479852 0)