/*--------------------------------*- C++ -*----------------------------------*\
  =========                 |
  \\      /  F ield         | OpenFOAM: The Open Source CFD Toolbox
   \\    /   O peration     | Website:  https://openfoam.org
    \\  /    A nd           | Version:  6
     \\/     M anipulation  |
\*---------------------------------------------------------------------------*/
FoamFile
{
    version     2.0;
    format      ascii;
    class       surfaceScalarField;
    location    "0.7";
    object      phi;
}
// * * * * * * * * * * * * * * * * * * * * * * * * * * * * * * * * * * * * * //

dimensions      [0 3 -1 0 0 0 0];

internalField   nonuniform List<scalar> 
11030
(
0.000116012
1.10051e-07
0.000116125
-1.12453e-07
0.00011607
5.44348e-08
0.000115838
2.32617e-07
0.000115583
2.54972e-07
0.000115307
2.75781e-07
0.000114968
3.3905e-07
0.000114549
4.19423e-07
0.000114043
5.0594e-07
0.000113441
6.01792e-07
0.000112731
7.1029e-07
0.000111898
8.32986e-07
0.000110926
9.71498e-07
0.000109798
1.12805e-06
0.000108493
1.30519e-06
0.000106987
1.50546e-06
0.000105257
1.73066e-06
0.000103276
1.9802e-06
0.000101028
2.24807e-06
2.51329e-06
9.85151e-05
0.000116396
-1.69504e-07
0.000116254
2.99223e-08
0.000115975
3.33174e-07
0.000115719
4.89001e-07
0.000115444
5.2995e-07
0.000115113
6.06813e-07
0.000114714
7.37969e-07
0.00011424
8.93621e-07
0.00011368
1.06551e-06
0.000113023
1.25875e-06
0.000112256
1.47772e-06
0.000111364
1.72523e-06
0.00011033
2.0047e-06
0.000109138
2.32052e-06
0.000107765
2.67767e-06
0.00010619
3.08106e-06
0.000104386
3.5341e-06
0.000102331
4.0355e-06
0.000100006
4.57313e-06
5.10948e-06
9.74098e-05
0.000116177
-2.59565e-07
0.000116113
9.44303e-08
0.000115878
5.68019e-07
0.000115584
7.83239e-07
0.000115261
8.52743e-07
0.000114885
9.82198e-07
0.00011444
1.18376e-06
0.000113915
1.41832e-06
0.000113302
1.67809e-06
0.000112591
1.97059e-06
0.000111767
2.30165e-06
0.000110817
2.67532e-06
0.000109725
3.09668e-06
0.000108473
3.57219e-06
0.000107041
4.10915e-06
0.000105408
4.7147e-06
0.000103548
5.39386e-06
0.000101439
6.14477e-06
9.9062e-05
6.94985e-06
7.7579e-06
9.64136e-05
0.000116072
-2.78022e-07
0.000115963
2.03269e-07
0.000115714
8.17254e-07
0.000115397
1.09978e-06
0.000115042
1.20805e-06
0.000114629
1.39517e-06
0.000114141
1.67152e-06
0.000113571
1.98919e-06
0.000112908
2.34016e-06
0.000112145
2.73428e-06
0.000111268
3.17877e-06
0.000110264
3.67891e-06
0.000109119
4.2413e-06
0.000107817
4.87435e-06
0.000106339
5.58743e-06
0.000104664
6.38977e-06
0.00010277
7.28785e-06
0.000100635
8.27937e-06
9.82435e-05
9.34169e-06
1.04124e-05
9.5589e-05
0.000115968
-2.27058e-07
0.000115802
3.69085e-07
0.000115525
1.0942e-06
0.000115185
1.43986e-06
0.0001148
1.5927e-06
0.000114352
1.84333e-06
0.000113824
2.19953e-06
0.000113209
2.60469e-06
0.000112499
3.05022e-06
0.000111685
3.54792e-06
0.000110757
4.1063e-06
0.000109705
4.73165e-06
0.000108514
5.43196e-06
0.000107171
6.2173e-06
0.00010566
7.09889e-06
0.000103962
8.08767e-06
0.000102058
9.19139e-06
9.99303e-05
1.04072e-05
9.75642e-05
1.17078e-05
1.3022e-05
9.49546e-05
0.00011585
-9.54008e-08
0.000115624
5.95213e-07
0.000115323
1.39504e-06
0.000114963
1.80023e-06
0.00011455
2.00601e-06
0.000114065
2.32798e-06
0.000113495
2.77004e-06
0.000112832
3.26728e-06
0.000112072
3.8103e-06
0.000111207
4.41258e-06
0.00011023
5.08371e-06
0.000109131
5.83088e-06
0.000107899
6.66325e-06
0.000106524
7.5923e-06
0.000104993
8.63063e-06
0.00010329
9.79054e-06
0.000101401
1.10806e-05
9.93102e-05
1.24975e-05
9.70083e-05
1.40097e-05
1.55401e-05
9.44902e-05
0.000115699
1.49352e-07
0.000115416
8.78087e-07
0.000115118
1.69262e-06
0.000114748
2.1699e-06
0.000114303
2.45096e-06
0.000113776
2.85562e-06
0.000113156
3.39014e-06
0.000112439
3.98396e-06
0.000111623
4.62637e-06
0.000110703
5.33244e-06
0.000109674
6.11293e-06
0.000108529
6.9759e-06
0.000107261
7.93151e-06
0.000105861
8.99223e-06
0.00010432
1.01716e-05
0.000102627
1.14827e-05
0.000100773
1.29347e-05
9.87471e-05
1.45237e-05
9.65415e-05
1.62153e-05
1.79305e-05
9.41511e-05
0.000115454
5.97437e-07
0.000115139
1.19337e-06
0.00011492
1.91198e-06
0.000114557
2.53251e-06
0.000114067
2.94151e-06
0.000113482
3.4406e-06
0.0001128
4.07198e-06
0.000112018
4.76562e-06
0.000111137
5.5073e-06
0.000110156
6.31366e-06
0.000109072
7.19733e-06
0.00010788
8.16732e-06
0.000106577
9.23447e-06
0.000105158
1.04118e-05
0.000103616
1.17132e-05
0.000101947
1.31518e-05
0.000100145
1.47368e-05
9.8204e-05
1.64646e-05
9.61194e-05
1.82999e-05
2.01703e-05
9.38796e-05
0.000114897
1.5637e-06
0.000114756
1.33487e-06
0.000114781
1.88666e-06
0.000114405
2.90839e-06
0.000113827
3.51943e-06
0.000113163
4.10457e-06
0.000112405
4.83077e-06
0.000111545
5.62532e-06
0.000110589
6.46302e-06
0.00010954
7.36317e-06
0.000108396
8.34146e-06
0.000107155
9.40777e-06
0.000105817
1.05731e-05
0.000104378
1.18502e-05
0.000102839
1.32524e-05
0.000101199
1.47919e-05
9.94581e-05
1.64775e-05
9.76162e-05
1.83065e-05
9.56715e-05
2.02447e-05
2.22222e-05
9.36196e-05
0.000113886
3.53935e-06
0.000114607
6.13858e-07
0.000114835
1.65863e-06
0.00011428
3.46368e-06
0.000113564
4.23516e-06
0.000112801
4.86785e-06
0.000111949
5.68284e-06
0.000111001
6.57271e-06
0.000109966
7.49828e-06
0.000108846
8.48344e-06
0.00010764
9.54689e-06
0.000106349
1.06987e-05
0.000104973
1.19494e-05
0.000103513
1.33103e-05
0.000101972
1.47929e-05
0.000100358
1.64068e-05
9.86777e-05
1.81575e-05
9.6942e-05
2.00421e-05
9.51409e-05
2.20458e-05
9.32636e-05
2.40995e-05
8.81412e-05
1.03739e-05
7.76246e-05
1.05166e-05
6.69516e-05
1.0673e-05
5.6118e-05
1.08335e-05
4.514e-05
1.09781e-05
3.40922e-05
1.10477e-05
2.31902e-05
1.0902e-05
1.2949e-05
1.02412e-05
4.44811e-06
8.50092e-06
4.44811e-06
8.71265e-05
2.06571e-05
7.66943e-05
2.09489e-05
6.61081e-05
2.12592e-05
5.53667e-05
2.15749e-05
4.449e-05
2.18548e-05
3.35579e-05
2.19799e-05
2.2788e-05
2.16719e-05
1.2693e-05
2.03362e-05
4.38724e-06
1.68067e-05
8.83535e-06
8.62199e-05
3.08508e-05
7.5872e-05
3.12967e-05
6.53709e-05
3.17603e-05
5.47175e-05
3.22284e-05
4.3934e-05
3.26383e-05
3.31039e-05
3.28099e-05
2.24495e-05
3.23263e-05
1.24868e-05
3.0299e-05
4.30418e-06
2.49892e-05
1.31395e-05
8.54693e-05
4.09705e-05
7.51931e-05
4.1573e-05
6.47651e-05
4.21883e-05
5.41868e-05
4.28066e-05
4.34812e-05
4.33438e-05
3.27342e-05
4.35569e-05
2.2172e-05
4.28885e-05
1.23134e-05
4.01576e-05
4.23551e-06
3.30671e-05
1.7375e-05
8.48914e-05
5.10337e-05
7.46692e-05
5.17952e-05
6.42972e-05
5.25603e-05
5.3776e-05
5.33279e-05
4.31279e-05
5.39919e-05
3.24408e-05
5.4244e-05
2.19455e-05
5.33838e-05
1.21662e-05
4.99369e-05
4.17474e-06
4.10586e-05
2.15498e-05
8.44668e-05
6.1057e-05
7.42811e-05
6.19809e-05
6.39474e-05
6.2894e-05
5.34633e-05
6.3812e-05
4.28504e-05
6.46048e-05
3.21994e-05
6.4895e-05
2.17477e-05
6.38355e-05
1.20282e-05
5.96564e-05
4.1131e-06
4.89736e-05
2.56629e-05
8.41506e-05
7.10575e-05
7.39842e-05
7.21473e-05
6.36711e-05
7.32072e-05
5.32039e-05
7.42792e-05
4.2604e-05
7.52047e-05
3.19673e-05
7.55317e-05
2.15416e-05
7.42612e-05
1.18727e-05
6.93253e-05
4.03714e-06
5.68093e-05
2.97e-05
8.3876e-05
8.10611e-05
7.37084e-05
8.23149e-05
6.33978e-05
8.35178e-05
5.29265e-05
8.47504e-05
4.23197e-05
8.58116e-05
3.16818e-05
8.61696e-05
2.12758e-05
8.46673e-05
1.16643e-05
7.89367e-05
3.92935e-06
6.45442e-05
3.36294e-05
8.35372e-05
9.11434e-05
7.33411e-05
9.25111e-05
6.30118e-05
9.38471e-05
5.25187e-05
9.52436e-05
4.1896e-05
9.64343e-05
3.12587e-05
9.68069e-05
2.08862e-05
9.50397e-05
1.13583e-05
8.84647e-05
3.76495e-06
7.21375e-05
3.73943e-05
8.28874e-05
0.00010152
7.26717e-05
0.000102727
6.23077e-05
0.000104211
5.1799e-05
0.000105752
4.1186e-05
0.000107047
3.05871e-05
0.000107406
2.02927e-05
0.000105334
1.08917e-05
9.78657e-05
3.49333e-06
7.95359e-05
4.08876e-05
3.155e-05
0.000106976
-3.70069e-05
2.61255e-05
0.000108151
2.07919e-05
0.000109545
1.55998e-05
0.000110944
1.06985e-05
0.000111949
6.34624e-06
0.000111758
2.89658e-06
0.000108784
7.06113e-07
0.000100056
-9.67379e-08
8.03388e-05
4.07909e-05
2.55232e-05
0.000111881
-3.04282e-05
2.0616e-05
0.000113059
1.58102e-05
0.00011435
1.12171e-05
0.000115537
7.00327e-06
0.000116162
3.42506e-06
0.000115336
8.06439e-07
0.000111402
-5.5638e-07
0.000101419
-6.22526e-07
8.04049e-05
4.01684e-05
1.95298e-05
0.000116264
-2.39122e-05
1.51562e-05
0.000117432
1.09164e-05
0.00011859
6.9485e-06
0.000119505
3.44084e-06
0.00011967
6.49712e-07
0.000118127
-1.13019e-06
0.000113182
-1.66862e-06
0.000101957
-1.03096e-06
7.97672e-05
3.91374e-05
1.36265e-05
0.000120128
-1.74909e-05
9.80586e-06
0.000121253
6.15684e-06
0.000122239
2.83749e-06
0.000122825
5.223e-08
0.000122455
-1.94565e-06
0.000120125
-2.89393e-06
0.000114131
-2.63516e-06
0.000101699
-1.3551e-06
7.84872e-05
3.77823e-05
7.856e-06
0.000123472
-1.11999e-05
4.59891e-06
0.00012451
1.56016e-06
0.000125278
-1.08974e-06
0.000125475
-3.13816e-06
0.000124504
-4.34149e-06
0.000121329
-4.47646e-06
0.000114266
-3.46425e-06
0.000100686
-1.61064e-06
7.66336e-05
3.61717e-05
2.24717e-06
0.000126292
-5.06734e-06
-4.37916e-07
0.000127195
-2.85126e-06
0.000127691
-4.81517e-06
0.000127439
-6.11656e-06
0.000125805
-6.52944e-06
0.000121742
-5.87695e-06
0.000113613
-4.16298e-06
9.89724e-05
-1.80625e-06
7.42769e-05
3.43654e-05
-3.18045e-06
0.000128584
8.88955e-07
-5.28523e-06
0.0001293
-7.06034e-06
0.000129466
-8.32542e-06
0.000128704
-8.87419e-06
0.000126354
-8.50635e-06
0.000121374
-7.09859e-06
0.000112205
-4.73956e-06
9.66134e-05
-1.95011e-06
7.14874e-05
3.24153e-05
-8.41594e-06
0.00013034
6.65961e-06
-9.93067e-06
0.000130814
-1.10551e-05
0.000130591
-1.16105e-05
0.000129259
-1.14045e-05
0.000126148
-1.02706e-05
0.00012024
-8.14542e-06
0.00011008
-5.20219e-06
9.36702e-05
-2.04956e-06
6.83348e-05
3.03658e-05
-1.34537e-05
0.000131553
1.2241e-05
-1.43651e-05
0.000131726
-1.48234e-05
0.000131049
-1.4657e-05
0.000129093
-1.36954e-05
0.000125186
-1.18146e-05
0.000118359
-9.01755e-06
0.000107283
-5.55827e-06
9.02109e-05
-2.11234e-06
6.48888e-05
2.82534e-05
-1.82836e-05
1.76373e-05
0.000132199
-1.85626e-05
0.000132005
-1.83265e-05
0.000130813
-1.74202e-05
0.000128186
-1.57052e-05
0.000123471
-1.31104e-05
0.000115764
-9.70757e-06
0.00010388
-5.81884e-06
8.63221e-05
-2.15553e-06
6.12255e-05
2.60979e-05
8.19907e-05
-3.76169e-05
-8.13807e-05
8.28211e-05
-3.12586e-05
8.38449e-05
-2.4936e-05
8.50059e-05
-1.86519e-05
8.62622e-05
-1.24562e-05
8.75656e-05
-6.37081e-06
8.88653e-05
-4.10728e-07
9.01108e-05
5.41413e-06
9.12547e-05
1.10971e-05
1.66498e-05
9.22422e-05
8.27126e-05
-3.80513e-05
-8.22782e-05
8.33409e-05
-3.18869e-05
8.41626e-05
-2.57577e-05
8.51346e-05
-1.96239e-05
8.62186e-05
-1.35402e-05
8.73736e-05
-7.52588e-06
8.85563e-05
-1.5934e-06
8.97234e-05
4.24701e-06
9.08335e-05
9.987e-06
1.56422e-05
9.18412e-05
8.33282e-05
-3.82852e-05
-8.30943e-05
8.3773e-05
-3.23317e-05
8.44074e-05
-2.63921e-05
8.51998e-05
-2.04162e-05
8.6117e-05
-1.44574e-05
8.71245e-05
-8.53342e-06
8.81863e-05
-2.65522e-06
8.92664e-05
3.16694e-06
9.03296e-05
8.92382e-06
1.46322e-05
9.13395e-05
8.3863e-05
-3.83721e-05
-8.37761e-05
8.41482e-05
-3.26169e-05
8.46137e-05
-2.68576e-05
8.52378e-05
-2.10404e-05
8.59947e-05
-1.52143e-05
8.68567e-05
-9.39546e-06
8.77951e-05
-3.59359e-06
8.87807e-05
2.18135e-06
8.97845e-05
7.92001e-06
1.36389e-05
9.07778e-05
8.43093e-05
-3.83421e-05
-8.43393e-05
8.44601e-05
-3.27677e-05
8.47783e-05
-2.71758e-05
8.52513e-05
-2.15134e-05
8.58601e-05
-1.58232e-05
8.65843e-05
-1.01196e-05
8.74018e-05
-4.41104e-06
8.82898e-05
1.29328e-06
8.92254e-05
6.98448e-06
1.26783e-05
9.01859e-05
8.46667e-05
-3.82095e-05
-8.47994e-05
8.47017e-05
-3.28026e-05
8.48928e-05
-2.7367e-05
8.52334e-05
-2.18539e-05
8.57104e-05
-1.63002e-05
8.6309e-05
-1.07182e-05
8.70129e-05
-5.11499e-06
8.78053e-05
5.00884e-07
8.86683e-05
6.12144e-06
1.17618e-05
8.95849e-05
8.49426e-05
-3.79846e-05
-8.51675e-05
8.48758e-05
-3.27357e-05
8.49569e-05
-2.74481e-05
8.51826e-05
-2.20796e-05
8.55439e-05
-1.66615e-05
8.60305e-05
-1.12047e-05
8.66308e-05
-5.71529e-06
8.73326e-05
-2.00934e-07
8.81227e-05
5.33133e-06
1.08961e-05
8.89884e-05
8.51462e-05
-3.76766e-05
-8.54541e-05
8.49891e-05
-3.25787e-05
8.49743e-05
-2.74333e-05
8.51002e-05
-2.22055e-05
8.53607e-05
-1.6922e-05
8.57484e-05
-1.15925e-05
8.62556e-05
-6.22245e-06
8.68736e-05
-8.18962e-07
8.75931e-05
4.6119e-06
1.00842e-05
8.8405e-05
8.52865e-05
-3.72936e-05
-8.56696e-05
8.50493e-05
-3.23415e-05
8.49504e-05
-2.73344e-05
8.49893e-05
-2.22444e-05
8.51617e-05
-1.70945e-05
8.54627e-05
-1.18935e-05
8.5887e-05
-6.64669e-06
8.64287e-05
-1.36066e-06
8.70813e-05
3.95926e-06
9.32653e-06
8.78389e-05
8.53725e-05
-3.68429e-05
-8.58232e-05
8.50638e-05
-3.20328e-05
8.48907e-05
-2.71613e-05
8.48533e-05
-2.2207e-05
8.49487e-05
-1.71899e-05
8.51736e-05
-1.21183e-05
8.55243e-05
-6.99739e-06
8.59971e-05
-1.83346e-06
8.65877e-05
3.36865e-06
8.62176e-06
8.72924e-05
8.54121e-05
-3.63314e-05
-8.59236e-05
8.50395e-05
-3.16602e-05
8.48007e-05
-2.69224e-05
8.46962e-05
-2.21024e-05
8.47239e-05
-1.72177e-05
8.48817e-05
-1.2276e-05
8.51672e-05
-7.2829e-06
8.55781e-05
-2.24437e-06
8.61117e-05
2.83503e-06
7.96736e-06
8.67661e-05
8.54126e-05
-3.57651e-05
-8.59788e-05
8.49829e-05
-3.12306e-05
8.46857e-05
-2.66252e-05
8.45217e-05
-2.19385e-05
8.44897e-05
-1.71857e-05
8.45882e-05
-1.23745e-05
8.48158e-05
-7.51048e-06
8.51711e-05
-2.5997e-06
8.56527e-05
2.35348e-06
7.36028e-06
8.62597e-05
8.53803e-05
-3.51499e-05
-8.59956e-05
8.48996e-05
-3.07499e-05
8.45504e-05
-2.6276e-05
8.43336e-05
-2.17217e-05
8.42485e-05
-1.71006e-05
8.42943e-05
-1.24203e-05
8.44703e-05
-7.68643e-06
8.47757e-05
-2.90512e-06
8.52098e-05
1.91934e-06
6.79725e-06
8.57729e-05
8.5321e-05
-3.44906e-05
-8.59803e-05
8.47946e-05
-3.02235e-05
8.43989e-05
-2.58803e-05
8.4135e-05
-2.14577e-05
8.40026e-05
-1.69683e-05
8.40015e-05
-1.24191e-05
8.41312e-05
-7.81615e-06
8.43916e-05
-3.16555e-06
8.47826e-05
1.52839e-06
6.27501e-06
8.53048e-05
8.52397e-05
-3.37919e-05
-8.59384e-05
8.46723e-05
-2.96561e-05
8.4235e-05
-2.54429e-05
8.39289e-05
-2.11517e-05
8.37542e-05
-1.67936e-05
8.37109e-05
-1.23758e-05
8.37991e-05
-7.90431e-06
8.40189e-05
-3.38532e-06
8.43704e-05
1.17681e-06
5.79048e-06
8.4855e-05
8.51405e-05
-3.30577e-05
-8.58746e-05
8.45365e-05
-2.90521e-05
8.40618e-05
-2.49682e-05
8.37179e-05
-2.08077e-05
8.35051e-05
-1.65809e-05
8.34239e-05
-1.22946e-05
8.34746e-05
-7.95495e-06
8.36575e-05
-3.56821e-06
8.39731e-05
8.61216e-07
5.34079e-06
8.44228e-05
8.50273e-05
-3.22919e-05
-8.57932e-05
8.43903e-05
-2.8415e-05
8.3882e-05
-2.446e-05
8.35041e-05
-2.04298e-05
8.32571e-05
-1.63339e-05
8.31416e-05
-1.21791e-05
8.31582e-05
-7.97158e-06
8.33076e-05
-3.71752e-06
8.35902e-05
5.78572e-07
4.92328e-06
8.40077e-05
8.49032e-05
-3.14975e-05
-8.56976e-05
8.42366e-05
-2.77484e-05
8.36981e-05
-2.39215e-05
8.32895e-05
-2.00211e-05
8.30115e-05
-1.6056e-05
8.2865e-05
-1.20326e-05
8.28507e-05
-7.95728e-06
8.29693e-05
-3.83617e-06
8.32217e-05
3.26193e-07
4.53555e-06
8.36094e-05
8.47711e-05
-3.06774e-05
-8.55911e-05
8.40778e-05
-2.70551e-05
8.35121e-05
-2.33558e-05
8.30756e-05
-1.95847e-05
8.27696e-05
-1.57499e-05
8.25949e-05
-1.18579e-05
8.25523e-05
-7.91476e-06
8.26429e-05
-3.92673e-06
8.28674e-05
1.01674e-07
4.17542e-06
8.32275e-05
8.46332e-05
-2.98343e-05
-8.54763e-05
8.39159e-05
-2.63378e-05
8.33256e-05
-2.27655e-05
8.2864e-05
-1.91231e-05
8.25324e-05
-1.54184e-05
8.2332e-05
-1.16574e-05
8.22636e-05
-7.84644e-06
8.23284e-05
-3.9915e-06
8.25272e-05
-9.71381e-08
3.84091e-06
8.28617e-05
8.44916e-05
-2.89705e-05
-8.53555e-05
8.37527e-05
-2.55989e-05
8.314e-05
-2.21528e-05
8.26556e-05
-1.86387e-05
8.23009e-05
-1.50636e-05
8.20769e-05
-1.14335e-05
8.19849e-05
-7.75448e-06
8.2026e-05
-4.03253e-06
8.2201e-05
-2.72188e-07
3.53018e-06
8.25117e-05
8.43481e-05
-2.80879e-05
-8.52307e-05
8.35895e-05
-2.48403e-05
8.29567e-05
-2.152e-05
8.24516e-05
-1.81335e-05
8.20756e-05
-1.46876e-05
8.18302e-05
-1.1188e-05
8.17165e-05
-7.64078e-06
8.17356e-05
-4.05168e-06
8.18887e-05
-4.25236e-07
3.24159e-06
8.21773e-05
8.42041e-05
-2.71883e-05
-8.51036e-05
8.34278e-05
-2.4064e-05
8.27766e-05
-2.08688e-05
8.22526e-05
-1.76095e-05
8.18573e-05
-1.42923e-05
8.15921e-05
-1.09229e-05
8.14585e-05
-7.5071e-06
8.14574e-05
-4.05062e-06
8.159e-05
-5.57884e-07
2.9736e-06
8.1858e-05
8.40608e-05
-2.62735e-05
-8.49756e-05
8.32685e-05
-2.32716e-05
8.26006e-05
-2.0201e-05
8.20593e-05
-1.70682e-05
8.16463e-05
-1.38793e-05
8.13631e-05
-1.06397e-05
8.1211e-05
-7.35501e-06
8.11912e-05
-4.03086e-06
8.1305e-05
-6.716e-07
2.72482e-06
8.15537e-05
8.39193e-05
-2.53449e-05
-8.4848e-05
8.31124e-05
-2.24646e-05
8.24293e-05
-1.9518e-05
8.18723e-05
-1.65112e-05
8.14431e-05
-1.34501e-05
8.11432e-05
-1.03398e-05
8.09742e-05
-7.18593e-06
8.09371e-05
-3.99381e-06
8.10332e-05
-7.6773e-07
2.49393e-06
8.12641e-05
8.37805e-05
-2.44037e-05
-8.47217e-05
8.29603e-05
-2.16444e-05
8.22634e-05
-1.88211e-05
8.1692e-05
-1.59398e-05
8.12479e-05
-1.3006e-05
8.09328e-05
-1.00247e-05
8.0748e-05
-7.00118e-06
8.06949e-05
-3.94074e-06
8.07747e-05
-8.47516e-07
2.27974e-06
8.09889e-05
8.36451e-05
-2.34511e-05
-8.45977e-05
8.28128e-05
-2.08122e-05
8.21033e-05
-1.81116e-05
8.15187e-05
-1.53552e-05
8.1061e-05
-1.25482e-05
8.07317e-05
-9.69541e-06
8.05325e-05
-6.80193e-06
8.04646e-05
-3.87281e-06
8.05291e-05
-9.12103e-07
2.08111e-06
8.07278e-05
8.35137e-05
-2.24882e-05
-8.44766e-05
8.26704e-05
-1.9969e-05
8.19494e-05
-1.73905e-05
8.13527e-05
-1.47586e-05
8.08824e-05
-1.20779e-05
8.05402e-05
-9.35317e-06
8.03276e-05
-6.58929e-06
8.02458e-05
-3.79111e-06
8.02963e-05
-9.62559e-07
1.897e-06
8.04804e-05
8.33867e-05
-2.15159e-05
-8.4359e-05
8.25335e-05
-1.91157e-05
8.18019e-05
-1.66589e-05
8.11942e-05
-1.41508e-05
8.07124e-05
-1.1596e-05
8.03581e-05
-8.99895e-06
8.01331e-05
-6.36427e-06
8.00387e-05
-3.69664e-06
8.0076e-05
-9.99874e-07
1.72643e-06
8.02465e-05
8.32647e-05
-2.05351e-05
-8.42455e-05
8.24024e-05
-1.82534e-05
8.16611e-05
-1.59177e-05
8.10433e-05
-1.3533e-05
8.05508e-05
-1.11036e-05
8.01856e-05
-8.63369e-06
7.99491e-05
-6.12778e-06
7.98428e-05
-3.59032e-06
7.98679e-05
-1.02497e-06
1.56847e-06
8.00258e-05
8.31479e-05
-1.95465e-05
-8.41364e-05
8.22773e-05
-1.73828e-05
8.15272e-05
-1.51677e-05
8.09001e-05
-1.29058e-05
8.03979e-05
-1.06014e-05
8.00224e-05
-8.25823e-06
7.97753e-05
-5.88071e-06
7.9658e-05
-3.47303e-06
7.96718e-05
-1.03871e-06
1.42226e-06
7.9818e-05
8.30365e-05
-1.85509e-05
-8.40321e-05
8.21584e-05
-1.65046e-05
8.14003e-05
-1.44096e-05
8.07646e-05
-1.22702e-05
8.02534e-05
-1.00902e-05
7.98686e-05
-7.87339e-06
7.96117e-05
-5.62384e-06
7.94842e-05
-3.34556e-06
7.94874e-05
-1.04191e-06
1.28699e-06
7.96227e-05
8.29309e-05
-1.7549e-05
-8.39329e-05
8.20459e-05
-1.56196e-05
8.12804e-05
-1.36442e-05
8.06369e-05
-1.16267e-05
8.01175e-05
-9.57073e-06
7.9724e-05
-7.47988e-06
7.94581e-05
-5.35792e-06
7.93212e-05
-3.20867e-06
7.93146e-05
-1.03532e-06
1.16188e-06
7.94397e-05
8.28311e-05
-1.65412e-05
-8.38388e-05
8.19398e-05
-1.47283e-05
8.11676e-05
-1.2872e-05
8.0517e-05
-1.09761e-05
7.999e-05
-9.04372e-06
7.95885e-05
-7.07841e-06
7.93143e-05
-5.08365e-06
7.91686e-05
-3.06306e-06
7.9153e-05
-1.01965e-06
1.04622e-06
7.92686e-05
8.27372e-05
-1.55283e-05
-8.37502e-05
8.18403e-05
-1.38314e-05
8.1062e-05
-1.20938e-05
8.04048e-05
-1.03189e-05
7.98709e-05
-8.50977e-06
7.94621e-05
-6.6696e-06
7.91801e-05
-4.80168e-06
7.90264e-05
-2.90939e-06
7.90024e-05
-9.95591e-07
9.39303e-07
7.91093e-05
8.26494e-05
-1.45106e-05
-8.36671e-05
8.17473e-05
-1.29293e-05
8.09635e-05
-1.131e-05
8.03003e-05
-9.65573e-06
7.976e-05
-7.96946e-06
7.93445e-05
-6.25406e-06
7.90554e-05
-4.51262e-06
7.88943e-05
-2.7483e-06
7.88625e-05
-9.63767e-07
8.40488e-07
7.89613e-05
8.25677e-05
-1.34887e-05
-8.35896e-05
8.16609e-05
-1.20225e-05
8.08721e-05
-1.05211e-05
8.02035e-05
-8.98715e-06
7.96574e-05
-7.42334e-06
7.92357e-05
-5.83235e-06
7.89401e-05
-4.21705e-06
7.87722e-05
-2.58036e-06
7.87332e-05
-9.24788e-07
7.49154e-07
7.88245e-05
8.2492e-05
-1.2463e-05
-8.35177e-05
8.15811e-05
-1.11116e-05
8.07877e-05
-9.72769e-06
8.01142e-05
-8.31364e-06
7.95628e-05
-6.87192e-06
7.91355e-05
-5.405e-06
7.88339e-05
-3.91551e-06
7.86597e-05
-2.40614e-06
7.86141e-05
-8.79224e-07
6.64709e-07
7.86986e-05
8.24225e-05
-1.1434e-05
-8.34516e-05
8.15079e-05
-1.0197e-05
8.07104e-05
-8.93019e-06
8.00325e-05
-7.63568e-06
7.94762e-05
-6.3157e-06
7.90437e-05
-4.97251e-06
7.87367e-05
-3.60851e-06
7.85568e-05
-2.22617e-06
7.85052e-05
-8.27622e-07
5.86586e-07
7.85833e-05
8.23592e-05
-1.04021e-05
-8.33911e-05
8.14413e-05
-9.27912e-06
8.06401e-05
-8.12902e-06
7.99581e-05
-6.95369e-06
7.93975e-05
-5.75513e-06
7.89604e-05
-4.53535e-06
7.86484e-05
-3.29655e-06
7.84632e-05
-2.04095e-06
7.84061e-05
-7.70504e-07
5.14244e-07
7.84784e-05
8.23019e-05
-9.36753e-06
-8.33364e-05
8.13811e-05
-8.3583e-06
8.05767e-05
-7.3246e-06
7.98911e-05
-6.26813e-06
7.93266e-05
-5.19066e-06
7.88853e-05
-4.09399e-06
7.85688e-05
-2.98009e-06
7.83788e-05
-1.85096e-06
7.83167e-05
-7.08372e-07
4.47163e-07
7.83838e-05
8.22507e-05
-8.33082e-06
-8.32874e-05
8.13273e-05
-7.43495e-06
8.05201e-05
-6.51732e-06
7.98313e-05
-5.57939e-06
7.92634e-05
-4.6227e-06
7.88182e-05
-3.64885e-06
7.84977e-05
-2.65958e-06
7.83035e-05
-1.65668e-06
7.82368e-05
-6.41708e-07
3.84839e-07
7.82991e-05
8.22055e-05
-7.29226e-06
-8.32441e-05
8.128e-05
-6.50945e-06
8.04703e-05
-5.70757e-06
7.97787e-05
-4.88787e-06
7.92077e-05
-4.05166e-06
7.87592e-05
-3.20036e-06
7.84351e-05
-2.33547e-06
7.82369e-05
-1.45854e-06
7.81662e-05
-5.70979e-07
3.26783e-07
7.82243e-05
8.21663e-05
-6.25222e-06
-8.32063e-05
8.1239e-05
-5.58216e-06
8.04271e-05
-4.89572e-06
7.97332e-05
-4.19394e-06
7.91595e-05
-3.47794e-06
7.8708e-05
-2.74891e-06
7.83807e-05
-2.00815e-06
7.81792e-05
-1.257e-06
7.81048e-05
-4.96639e-07
2.72515e-07
7.81591e-05
8.21329e-05
-5.21105e-06
-8.31741e-05
8.12042e-05
-4.65343e-06
8.03906e-05
-4.08213e-06
7.96946e-05
-3.49798e-06
7.91186e-05
-2.9019e-06
7.86646e-05
-2.2949e-06
7.83345e-05
-1.67805e-06
7.813e-05
-1.05246e-06
7.80525e-05
-4.1914e-07
2.21566e-07
7.81034e-05
8.21054e-05
-4.16908e-06
-8.31474e-05
8.11756e-05
-3.72361e-06
8.03606e-05
-3.26715e-06
7.9663e-05
-2.80034e-06
7.9085e-05
-2.32393e-06
7.86288e-05
-1.83872e-06
7.82963e-05
-1.34556e-06
7.80892e-05
-8.45363e-07
7.8009e-05
-3.38923e-07
1.73466e-07
7.80571e-05
8.20837e-05
-3.12667e-06
-8.31261e-05
8.11531e-05
-2.79304e-06
8.03371e-05
-2.45111e-06
7.96381e-05
-2.10137e-06
7.90585e-05
-1.74438e-06
7.86006e-05
-1.38074e-06
7.82661e-05
-1.0111e-06
7.80569e-05
-6.36126e-07
7.79744e-05
-2.56437e-07
1.27746e-07
7.80201e-05
8.20676e-05
-2.08415e-06
-8.31101e-05
8.11366e-05
-1.86205e-06
8.03199e-05
-1.63436e-06
7.96199e-05
-1.40143e-06
7.90392e-05
-1.16362e-06
7.85798e-05
-9.21354e-07
7.82437e-05
-6.75056e-07
7.80328e-05
-4.25182e-07
7.79485e-05
-1.72134e-07
8.39242e-08
7.79923e-05
8.20572e-05
-1.04183e-06
-8.30995e-05
8.11261e-05
-9.30939e-07
8.03089e-05
-8.17217e-07
7.96084e-05
-7.00846e-07
7.90268e-05
-5.82028e-07
7.85664e-05
-4.60963e-07
7.82292e-05
-3.37872e-07
7.8017e-05
-2.1298e-07
7.79313e-05
-8.6489e-08
4.15126e-08
7.79738e-05
8.20523e-05
-8.30941e-05
8.11214e-05
8.03041e-05
7.96033e-05
7.90213e-05
7.85603e-05
7.82224e-05
7.80094e-05
7.7923e-05
7.79645e-05
8.10512e-05
2.38476e-06
8.03753e-05
1.28976e-06
8.00377e-05
1.99623e-06
8.01181e-05
3.38326e-06
8.01188e-05
4.23452e-06
8.00281e-05
4.95857e-06
7.99242e-05
5.78675e-06
7.98199e-05
6.67695e-06
7.97115e-05
7.60674e-06
7.96028e-05
8.59213e-06
7.95018e-05
9.64787e-06
7.94172e-05
1.07834e-05
7.93589e-05
1.20076e-05
7.93392e-05
1.333e-05
7.9373e-05
1.47592e-05
7.94784e-05
1.63013e-05
7.96781e-05
1.79578e-05
8.00036e-05
1.97167e-05
8.05201e-05
2.15293e-05
2.32388e-05
8.08329e-05
1.50426e-06
8.0457e-05
1.66564e-06
8.01773e-05
2.27589e-06
8.02002e-05
3.3604e-06
8.02008e-05
4.23386e-06
8.01422e-05
5.0172e-06
8.00741e-05
5.85483e-06
8.00085e-05
6.74259e-06
7.99444e-05
7.6708e-06
7.98864e-05
8.6502e-06
7.98419e-05
9.69228e-06
7.982e-05
1.08053e-05
7.98307e-05
1.19969e-05
7.98864e-05
1.32743e-05
8.00023e-05
1.46432e-05
8.01968e-05
1.61069e-05
8.04923e-05
1.76622e-05
8.09176e-05
1.92914e-05
8.15077e-05
2.09391e-05
2.24684e-05
8.03861e-05
1.09756e-06
8.03302e-05
1.72149e-06
8.0206e-05
2.40008e-06
8.02179e-05
3.34856e-06
8.02332e-05
4.21852e-06
8.02149e-05
5.03555e-06
8.01877e-05
5.88198e-06
8.01631e-05
6.76724e-06
8.01436e-05
7.69022e-06
8.01346e-05
8.65922e-06
8.01436e-05
9.68333e-06
8.01793e-05
1.07696e-05
8.02519e-05
1.19243e-05
8.03736e-05
1.31525e-05
8.05588e-05
1.44581e-05
8.08244e-05
1.58413e-05
8.11903e-05
1.72964e-05
8.16779e-05
1.88038e-05
8.23074e-05
2.03096e-05
2.16815e-05
8.0198e-05
8.97346e-07
8.02123e-05
1.70721e-06
8.01781e-05
2.43424e-06
8.0208e-05
3.31866e-06
8.02438e-05
4.18278e-06
8.02614e-05
5.01795e-06
8.02735e-05
5.86991e-06
8.0289e-05
6.75166e-06
8.03126e-05
7.66666e-06
8.03499e-05
8.62194e-06
8.04083e-05
9.62488e-06
8.04965e-05
1.06814e-05
8.06244e-05
1.17964e-05
8.08033e-05
1.29736e-05
8.10466e-05
1.42147e-05
8.13695e-05
1.55184e-05
8.17887e-05
1.68773e-05
8.23211e-05
1.82713e-05
8.29811e-05
1.96496e-05
2.08866e-05
8.01091e-05
8.01374e-07
8.01418e-05
1.67457e-06
8.01528e-05
2.42324e-06
8.01967e-05
3.27475e-06
8.0249e-05
4.13049e-06
8.02953e-05
4.97163e-06
8.03412e-05
5.82401e-06
8.03931e-05
6.69974e-06
8.04559e-05
7.6039e-06
8.05353e-05
8.54257e-06
8.06383e-05
9.52179e-06
8.07733e-05
1.05464e-05
8.09495e-05
1.16203e-05
8.11775e-05
1.27456e-05
8.14692e-05
1.3923e-05
8.18381e-05
1.51496e-05
8.2298e-05
1.64173e-05
8.28628e-05
1.77066e-05
8.35425e-05
1.89699e-05
2.00897e-05
8.00739e-05
7.54473e-07
8.01087e-05
1.6398e-06
8.014e-05
2.3919e-06
8.0193e-05
3.22177e-06
8.02576e-05
4.06585e-06
8.03255e-05
4.90376e-06
8.03987e-05
5.75085e-06
8.04814e-05
6.61695e-06
8.05782e-05
7.50709e-06
8.06944e-05
8.42637e-06
8.08366e-05
9.37968e-06
8.10121e-05
1.03709e-05
8.12297e-05
1.14027e-05
8.14989e-05
1.24764e-05
8.18303e-05
1.35915e-05
8.22355e-05
1.47444e-05
8.27262e-05
1.59266e-05
8.33133e-05
1.71195e-05
8.40044e-05
1.82788e-05
1.92947e-05
8.0066e-05
7.28531e-07
8.00992e-05
1.60667e-06
8.01395e-05
2.35154e-06
8.01987e-05
3.16266e-06
8.02725e-05
3.99201e-06
8.03563e-05
4.81998e-06
8.04507e-05
5.65643e-06
8.05587e-05
6.50896e-06
8.0684e-05
7.3818e-06
8.08313e-05
8.27903e-06
8.10065e-05
9.20446e-06
8.12164e-05
1.0161e-05
8.14686e-05
1.11505e-05
8.17717e-05
1.21734e-05
8.21349e-05
1.32283e-05
8.25681e-05
1.43112e-05
8.30811e-05
1.54136e-05
8.36827e-05
1.65178e-05
8.43787e-05
1.75828e-05
1.85059e-05
8.00707e-05
7.10624e-07
8.01031e-05
1.57434e-06
8.01483e-05
2.30634e-06
8.02121e-05
3.09884e-06
8.02931e-05
3.91098e-06
8.03889e-05
4.72422e-06
8.04998e-05
5.54556e-06
8.06279e-05
6.38085e-06
8.07763e-05
7.23333e-06
8.09493e-05
8.10608e-06
8.11518e-05
9.00193e-06
8.13899e-05
9.92294e-06
8.16703e-05
1.08701e-05
8.20004e-05
1.18432e-05
8.23883e-05
1.28404e-05
8.28424e-05
1.38572e-05
8.33707e-05
1.48853e-05
8.39804e-05
1.59081e-05
8.46758e-05
1.68875e-05
1.77276e-05
8.00808e-05
6.95095e-07
8.01139e-05
1.54129e-06
8.01626e-05
2.25757e-06
8.02306e-05
3.03088e-06
8.03176e-05
3.82393e-06
8.04228e-05
4.61908e-06
8.05465e-05
5.42186e-06
8.06905e-05
6.23683e-06
8.08575e-05
7.06633e-06
8.1051e-05
7.91255e-06
8.12755e-05
8.77746e-06
8.15361e-05
9.66232e-06
8.18387e-05
1.05675e-05
8.21898e-05
1.14922e-05
8.25962e-05
1.2434e-05
8.30648e-05
1.33885e-05
8.36025e-05
1.43476e-05
8.4215e-05
1.52956e-05
8.49051e-05
1.61973e-05
1.69632e-05
8.0093e-05
6.79594e-07
8.01278e-05
1.50654e-06
8.01798e-05
2.20556e-06
8.02516e-05
2.959e-06
8.0344e-05
3.73156e-06
8.04568e-05
4.50633e-06
8.05906e-05
5.28802e-06
8.07471e-05
6.08031e-06
8.09287e-05
6.88477e-06
8.11384e-05
7.70285e-06
8.13801e-05
8.53579e-06
8.16582e-05
9.38422e-06
8.19778e-05
1.02479e-05
8.23443e-05
1.11256e-05
8.27637e-05
1.20147e-05
8.32416e-05
1.29106e-05
8.37836e-05
1.38056e-05
8.43943e-05
1.46849e-05
8.50755e-05
1.55161e-05
1.62155e-05
8.01058e-05
6.63264e-07
8.01426e-05
1.46968e-06
8.01977e-05
2.15046e-06
8.02734e-05
2.88336e-06
8.03705e-05
3.63439e-06
8.04897e-05
4.38722e-06
8.06316e-05
5.14606e-06
8.0798e-05
5.91395e-06
8.09909e-05
6.69188e-06
8.1213e-05
7.4807e-06
8.14677e-05
8.28106e-06
8.17589e-05
9.09305e-06
8.20908e-05
9.916e-06
8.24681e-05
1.07483e-05
8.28957e-05
1.15871e-05
8.33783e-05
1.2428e-05
8.39205e-05
1.32634e-05
8.45257e-05
1.40798e-05
8.51949e-05
1.48468e-05
1.54868e-05
8.01185e-05
6.45905e-07
8.01575e-05
1.43069e-06
8.02154e-05
2.09251e-06
8.02945e-05
2.80424e-06
8.0396e-05
3.53296e-06
8.05204e-05
4.26279e-06
8.06689e-05
4.99759e-06
8.08429e-05
5.73993e-06
8.10444e-05
6.49035e-06
8.12759e-05
7.24923e-06
8.15402e-05
8.01675e-06
8.18407e-05
8.79258e-06
8.2181e-05
9.57571e-06
8.2565e-05
1.03643e-05
8.29968e-05
1.11553e-05
8.34803e-05
1.19445e-05
8.4019e-05
1.27247e-05
8.46157e-05
1.34831e-05
8.52706e-05
1.41919e-05
1.47787e-05
8.01308e-05
6.27582e-07
8.01717e-05
1.38977e-06
8.02322e-05
2.03202e-06
8.03144e-05
2.72204e-06
8.04195e-05
3.42784e-06
8.05484e-05
4.13397e-06
8.0702e-05
4.84397e-06
8.08819e-05
5.56004e-06
8.10898e-05
6.28239e-06
8.1328e-05
7.01102e-06
8.1599e-05
7.74577e-06
8.19056e-05
8.48598e-06
8.22509e-05
9.23038e-06
8.26383e-05
9.97693e-06
8.30709e-05
1.07227e-05
8.35521e-05
1.14633e-05
8.40846e-05
1.21922e-05
8.46703e-05
1.28974e-05
8.53091e-05
1.35531e-05
1.40922e-05
8.01427e-05
6.08455e-07
8.01852e-05
1.34724e-06
8.02478e-05
1.96938e-06
8.03326e-05
2.63723e-06
8.04408e-05
3.31967e-06
8.05732e-05
4.00164e-06
8.07307e-05
4.68638e-06
8.0915e-05
5.37581e-06
8.11275e-05
6.06986e-06
8.13703e-05
6.76826e-06
8.16455e-05
7.47057e-06
8.19555e-05
8.1759e-06
8.23031e-05
8.88278e-06
8.2691e-05
9.5891e-06
8.31218e-05
1.02919e-05
8.35981e-05
1.0987e-05
8.4122e-05
1.16682e-05
8.46949e-05
1.23245e-05
8.53162e-05
1.29318e-05
1.3428e-05
8.0154e-05
5.88703e-07
8.01978e-05
1.30343e-06
8.02622e-05
1.90504e-06
8.03491e-05
2.55034e-06
8.04596e-05
3.2091e-06
8.05946e-05
3.86662e-06
8.07551e-05
4.52589e-06
8.09424e-05
5.18857e-06
8.11579e-05
5.85435e-06
8.14034e-05
6.52277e-06
8.16808e-05
7.19318e-06
8.19922e-05
7.86451e-06
8.23397e-05
8.5352e-06
8.27258e-05
9.20307e-06
8.31525e-05
9.86522e-06
8.36218e-05
1.05177e-05
8.41354e-05
1.11546e-05
8.46941e-05
1.17658e-05
8.5297e-05
1.2329e-05
1.27866e-05
8.01648e-05
5.68494e-07
8.02096e-05
1.25867e-06