/*--------------------------------*- C++ -*----------------------------------*\
  =========                 |
  \\      /  F ield         | OpenFOAM: The Open Source CFD Toolbox
   \\    /   O peration     | Website:  https://openfoam.org
    \\  /    A nd           | Version:  6
     \\/     M anipulation  |
\*---------------------------------------------------------------------------*/
FoamFile
{
    version     2.0;
    format      ascii;
    class       surfaceScalarField;
    location    "0.3";
    object      phi;
}
// * * * * * * * * * * * * * * * * * * * * * * * * * * * * * * * * * * * * * //

dimensions      [0 3 -1 0 0 0 0];

internalField   nonuniform List<scalar> 
11030
(
0.000112737
-2.08367e-07
0.000112863
-1.26025e-07
0.000112918
-5.57317e-08
0.000112902
1.65731e-08
0.000112809
9.27269e-08
0.000112636
1.72823e-07
0.000112379
2.57509e-07
0.000112031
3.47883e-07
0.000111586
4.45222e-07
0.000111035
5.50939e-07
0.000110368
6.66655e-07
0.000109574
7.94256e-07
0.000108638
9.35927e-07
0.000107544
1.09415e-06
0.000106272
1.27162e-06
0.000104801
1.47098e-06
0.000103107
1.69411e-06
0.000101167
1.94053e-06
9.89621e-05
2.2044e-06
2.46528e-06
9.64969e-05
0.000112702
-3.7889e-07
0.000112785
-2.08945e-07
0.000112797
-6.74005e-08
0.000112736
7.76523e-08
0.000112597
2.31145e-07
0.000112377
3.92633e-07
0.000112072
5.63318e-07
0.000111674
7.45481e-07
0.000111178
9.41698e-07
0.000110574
1.15481e-06
0.000109852
1.38808e-06
0.000109001
1.64529e-06
0.000108006
1.93082e-06
0.000106851
2.2496e-06
0.000105516
2.60698e-06
0.000103978
3.00812e-06
0.000102216
3.45663e-06
0.000100205
3.95143e-06
9.79286e-05
4.48085e-06
5.0085e-06
9.53853e-05
0.00011266
-5.00588e-07
0.000112693
-2.42533e-07
0.000112654
-2.8396e-08
0.000112542
1.9044e-07
0.000112351
4.21878e-07
0.000112078
6.65366e-07
0.000111719
9.22685e-07
0.000111267
1.19722e-06
0.000110716
1.49283e-06
0.000110057
1.81375e-06
0.00010928
2.16484e-06
0.000108374
2.55174e-06
0.000107324
2.98092e-06
0.000106114
3.45967e-06
0.000104725
3.99583e-06
0.000103136
4.597e-06
0.000101324
5.26849e-06
9.92666e-05
6.00881e-06
9.69463e-05
6.80114e-06
7.59615e-06
9.43587e-05
0.000112613
-5.6639e-07
0.00011259
-2.19065e-07
0.000112493
6.80217e-08
0.000112323
3.60792e-07
0.000112075
6.70108e-07
0.000111745
9.95491e-07
0.000111328
1.33926e-06
0.00011082
1.70578e-06
0.000110212
2.1001e-06
0.000109498
2.52779e-06
0.000108668
2.99521e-06
0.00010771
3.5097e-06
0.000106611
4.07966e-06
0.000105356
4.71453e-06
0.000103928
5.42442e-06
0.000102306
6.21911e-06
0.000100469
7.10551e-06
9.83957e-05
8.08178e-06
9.60703e-05
9.12646e-06
1.018e-05
9.34865e-05
0.000112562
-5.68802e-07
0.000112475
-1.31774e-07
0.000112315
2.27746e-07
0.000112082
5.93839e-07
0.000111772
9.80266e-07
0.00011138
1.3867e-06
0.000110904
1.81588e-06
0.000110337
2.27298e-06
0.000109673
2.76411e-06
0.000108904
3.29603e-06
0.000108023
3.87645e-06
0.000107019
4.51419e-06
0.000105879
5.21931e-06
0.00010459
6.00307e-06
0.000103137
6.87748e-06
0.000101502
7.85412e-06
9.96666e-05
8.9412e-06
9.76119e-05
1.01365e-05
9.53242e-05
1.14142e-05
1.27074e-05
9.27968e-05
0.000112505
-5.00161e-07
0.000112347
2.57161e-08
0.000112119
4.55839e-07
0.000111819
8.94049e-07
0.000111443
1.35635e-06
0.000110987
1.84238e-06
0.000110448
2.35515e-06
0.00010982
2.90047e-06
0.000109099
3.48531e-06
0.000108278
4.1175e-06
0.000107348
4.80583e-06
0.000106302
5.56034e-06
0.000105129
6.39238e-06
0.000103818
7.3146e-06
0.000102355
8.34037e-06
0.000100726
9.48257e-06
9.89172e-05
1.07503e-05
9.69129e-05
1.21408e-05
9.47023e-05
1.36248e-05
1.51307e-05
9.22791e-05
0.000112441
-3.52006e-07
0.000112207
2.59156e-07
0.000111907
7.55964e-07
0.000111536
1.26522e-06
0.00011109
1.80222e-06
0.000110567
2.36591e-06
0.000109962
2.95976e-06
0.000109273
3.59006e-06
0.000108493
4.2645e-06
0.000107619
4.99171e-06
0.000106644
5.78133e-06
0.00010556
6.64425e-06
0.00010436
7.59269e-06
0.000103034
8.6401e-06
0.000101574
9.80065e-06
9.99685e-05
1.10878e-05
9.82075e-05
1.25112e-05
9.62806e-05
1.40677e-05
9.41799e-05
1.57254e-05
1.74127e-05
9.18979e-05
0.000112367
-1.13305e-07
0.000112053
5.72878e-07
0.00011168
1.12903e-06
0.000111235
1.71059e-06
0.000110715
2.32215e-06
0.00011012
2.96109e-06
0.000109447
3.63282e-06
0.000108693
4.34417e-06
0.000107854
5.10322e-06
0.000106927
5.91918e-06
0.000105906
6.80226e-06
0.000104786
7.76377e-06
0.000103563
8.81627e-06
0.000102229
9.97341e-06
0.000100781
1.12494e-05
9.92108e-05
1.26576e-05
9.75144e-05
1.42076e-05
9.56857e-05
1.58964e-05
9.37195e-05
1.76915e-05
1.95301e-05
9.16021e-05
0.000112273
2.37536e-07
0.000111883
9.62202e-07
0.000111442
1.57083e-06
0.000110917
2.23487e-06
0.000110318
2.9219e-06
0.000109646
3.63257e-06
0.000108901
4.37847e-06
0.000108078
5.16664e-06
0.000107176
6.00495e-06
0.000106193
6.90299e-06
0.000105124
7.87123e-06
0.000103966
8.92096e-06
0.000102718
1.00644e-05
0.000101377
1.13147e-05
9.99411e-05
1.26851e-05
9.84108e-05
1.4188e-05
9.67864e-05
1.5832e-05
9.50677e-05
1.76151e-05
9.32539e-05
1.95053e-05
2.14441e-05
9.13399e-05
0.000112144
7.36658e-07
0.000111715
1.39144e-06
0.000111203
2.08294e-06
0.000110589
2.84856e-06
0.000109904
3.60695e-06
0.000109153
4.38413e-06
0.000108331
5.20022e-06
0.000107437
6.06069e-06
0.000106469
6.97277e-06
0.000105426
7.9463e-06
0.000104305
8.99171e-06
0.000103106
1.01198e-05
0.000101829
1.1342e-05
0.000100474
1.26698e-05
9.90443e-05
1.41146e-05
9.75466e-05
1.56856e-05
9.59902e-05
1.73884e-05
9.43853e-05
1.92201e-05
9.2724e-05
2.11666e-05
9.1005e-05
2.31631e-05
8.63301e-05
1.01667e-05
7.60212e-05
1.03089e-05
6.55566e-05
1.04646e-05
5.49328e-05
1.06238e-05
4.41671e-05
1.07657e-05
3.3336e-05
1.08311e-05
2.26552e-05
1.06808e-05
1.26343e-05
1.00209e-05
4.33185e-06
8.30246e-06
4.33185e-06
8.53159e-05
2.02362e-05
7.50963e-05
2.05285e-05
6.4722e-05
2.08389e-05
5.41923e-05
2.11534e-05
4.35287e-05
2.14293e-05
3.28128e-05
2.15471e-05
2.22625e-05
2.12311e-05
1.23851e-05
1.98983e-05
4.27306e-06
1.64145e-05
8.60491e-06
8.43923e-05
3.02026e-05
7.42677e-05
3.0653e-05
6.39862e-05
3.11204e-05
5.35498e-05
3.15899e-05
4.29824e-05
3.19967e-05
3.23695e-05
3.216e-05
2.19338e-05
3.16668e-05
1.21859e-05
2.96462e-05
4.19321e-06
2.44072e-05
1.27981e-05
8.36126e-05
4.00766e-05
7.35743e-05
4.06913e-05
6.33769e-05
4.13178e-05
5.30233e-05
4.19434e-05
4.25386e-05
4.24814e-05
3.20109e-05
4.26878e-05
2.16669e-05
4.20107e-05
1.20204e-05
3.92927e-05
4.1281e-06
3.22996e-05
1.69262e-05
8.30001e-05
4.98733e-05
7.30326e-05
5.06587e-05
6.29041e-05
5.14463e-05
5.26167e-05
5.22309e-05
4.21952e-05
5.29029e-05
3.17299e-05
5.31531e-05
2.14527e-05
5.2288e-05
1.18824e-05
4.88629e-05
4.07154e-06
4.01105e-05
2.09978e-05
8.2543e-05
5.96093e-05
7.26291e-05
6.05726e-05
6.25519e-05
6.15235e-05
5.23111e-05
6.24717e-05
4.19307e-05
6.32832e-05
3.15043e-05
6.35795e-05
2.127e-05
6.25222e-05
1.17559e-05
5.8377e-05
4.01513e-06
4.78512e-05
2.50129e-05
8.22035e-05
6.93037e-05
7.23245e-05
7.04517e-05
6.228e-05
7.15679e-05
5.20648e-05
7.26869e-05
4.17031e-05
7.3645e-05
3.12932e-05
7.39894e-05
2.10836e-05
7.27318e-05
1.16151e-05
6.78455e-05
3.94594e-06
5.55204e-05
2.89588e-05
8.19208e-05
7.89851e-05
7.20537e-05
8.03188e-05
6.20218e-05
8.15998e-05
5.18101e-05
8.28986e-05
4.14461e-05
8.40091e-05
3.10363e-05
8.43992e-05
2.08438e-05
8.29243e-05
1.14258e-05
7.72635e-05
3.84699e-06
6.30992e-05
3.28058e-05
8.15935e-05
8.87315e-05
7.1708e-05
9.02042e-05
6.16656e-05
9.16422e-05
5.14383e-05
9.3126e-05
4.10619e-05
9.43854e-05
3.06527e-05
9.48084e-05
2.04892e-05
9.30877e-05
1.11449e-05
8.66078e-05
3.69416e-06
7.055e-05
3.65e-05
8.09848e-05
9.87517e-05
7.10876e-05
0.000100101
6.10169e-05
0.000101713
5.07781e-05
0.000103365
4.0412e-05
0.000104751
3.00374e-05
0.000105183
1.99428e-05
0.000103182
1.07111e-05
9.58394e-05
3.43777e-06
7.78233e-05
3.99377e-05
3.10882e-05
0.000104094
-3.64305e-05
2.5773e-05
0.000105417
2.05437e-05
0.000106942
1.54485e-05
0.00010846
1.06338e-05
0.000109566
6.35177e-06
0.000109465
2.94655e-06
0.000106588
7.64963e-07
9.8021e-05
-6.41842e-08
7.86525e-05
3.98735e-05
2.53344e-05
0.000108912
-3.01522e-05
2.05127e-05
0.000110238
1.57856e-05
0.000111669
1.12614e-05
0.000112984
7.10274e-06
0.000113725
3.55969e-06
0.000113008
9.47615e-07
0.0001092
-4.44051e-07
9.94127e-05
-5.69128e-07
7.87776e-05
3.93044e-05
1.96308e-05
0.000113235
-2.39544e-05
1.53153e-05
0.000114554
1.11258e-05
0.000115859
7.19597e-06
0.000116914
3.7092e-06
0.000117212
9.15127e-07
0.000115802
-8.98762e-07
0.000111014
-1.50551e-06
0.000100019
-9.59553e-07
7.82316e-05
3.83449e-05
1.40349e-05
0.000117066
-1.78658e-05
1.02429e-05
0.000118346
6.61245e-06
0.000119489
3.29639e-06
0.00012023
4.9347e-07
0.000120014
-1.54934e-06
0.000117845
-2.57501e-06
0.000112039
-2.42522e-06
9.98697e-05
-1.26849e-06
7.70749e-05
3.70764e-05
8.58845e-06
0.000120403
-1.19248e-05
5.32909e-06
0.000121605
2.27371e-06
0.000122545
-4.12244e-07
0.000122916
-2.52167e-06
0.000122124
-3.81607e-06
0.000119139
-4.07449e-06
0.000112298
-3.21229e-06
9.90075e-05
-1.51164e-06
7.53742e-05
3.55647e-05
3.32224e-06
0.000123244
-6.16326e-06
6.0053e-07
0.000124327
-1.86919e-06
0.000125014
-3.9138e-06
0.000124961
-5.32474e-06
0.000123535
-5.87897e-06
0.000119694
-5.39811e-06
0.000111817
-3.87468e-06
9.7484e-05
-1.69777e-06
7.31973e-05
3.3867e-05
-1.74175e-06
0.000125589
-6.03763e-07
-3.92293e-06
0.000126508
-5.80031e-06
0.000126892
-7.1971e-06
0.000126357
-7.90967e-06
0.000124247
-7.73747e-06
0.000119521
-6.5509e-06
0.00011063
-4.42142e-06
9.53545e-05
-1.83514e-06
7.0611e-05
3.20318e-05
-6.59026e-06
0.00012744
4.73956e-06
-8.22889e-06
0.000128147
-9.50941e-06
0.000128172
-1.02551e-05
0.000127103
-1.02734e-05
0.000124266
-9.39299e-06
0.000118641
-7.539e-06
0.000108776
-4.86165e-06
9.26772e-05
-1.93118e-06
6.76806e-05
3.01007e-05
-1.1216e-05
0.000128798
9.85808e-06
-1.23095e-05
0.00012924
-1.29879e-05
0.000128851
-1.30792e-05
0.000127194
-1.24084e-05
0.000123595
-1.0842e-05
0.000117075
-8.36511e-06
0.000106299
-5.2038e-06
8.95159e-05
-1.99375e-06
6.44705e-05
2.81069e-05
-1.56133e-05
1.47581e-05
0.000129653
-1.61455e-05
0.000129772
-1.62055e-05
0.000128911
-1.56334e-05
0.000126622
-1.42815e-05
0.000122243
-1.20626e-05
0.000114856
-9.02515e-06
0.000103262
-5.46013e-06
8.59509e-05
-2.04002e-06
6.10504e-05
2.60669e-05
7.98945e-05
-3.70893e-05
-7.92357e-05
8.07655e-05
-3.10233e-05
8.18215e-05
-2.50104e-05
8.30082e-05
-1.90525e-05
8.42836e-05
-1.32002e-05
8.55999e-05
-7.47953e-06
8.69067e-05
-1.9106e-06
8.81551e-05
3.49117e-06
8.92997e-05
8.71354e-06
1.3767e-05
9.02907e-05
8.05427e-05
-3.75659e-05
-8.00662e-05
8.12119e-05
-3.16924e-05
8.20664e-05
-2.58649e-05
8.30629e-05
-2.00491e-05
8.41632e-05
-1.43005e-05
8.53262e-05
-8.64247e-06
8.65087e-05
-3.0931e-06
8.76685e-05
2.33133e-06
8.87657e-05
7.61632e-06
1.27737e-05
8.9759e-05
8.1099e-05
-3.78419e-05
-8.08231e-05
8.15826e-05
-3.21759e-05
8.2248e-05
-2.65303e-05
8.30624e-05
-2.08636e-05
8.39923e-05
-1.52304e-05
8.50026e-05
-9.65279e-06
8.60573e-05
-4.14775e-06
8.71207e-05
1.26786e-06
8.81589e-05
6.57812e-06
1.17941e-05
8.91386e-05
8.15818e-05
-3.79697e-05
-8.14539e-05
8.19029e-05
-3.2497e-05
8.23965e-05
-2.70239e-05
8.30397e-05
-2.15067e-05
8.38054e-05
-1.59961e-05
8.46654e-05
-1.05128e-05
8.55904e-05
-5.07278e-06
8.65514e-05
3.0687e-07
8.75199e-05
5.60964e-06
1.08446e-05
8.84693e-05
8.19825e-05
-3.79788e-05
-8.19734e-05
8.21659e-05
-3.26805e-05
8.25089e-05
-2.73668e-05
8.29971e-05
-2.1995e-05
8.36108e-05
-1.66098e-05
8.43283e-05
-1.12303e-05
8.51269e-05
-5.87136e-06
8.59834e-05
-5.49712e-07
8.68749e-05
4.71815e-06
9.93943e-06
8.77801e-05
8.23e-05
-3.78831e-05
-8.23957e-05
8.23643e-05
-3.27448e-05
8.25764e-05
-2.75789e-05
8.29283e-05
-2.23469e-05
8.34059e-05
-1.70874e-05
8.39933e-05
-1.18177e-05
8.46733e-05
-6.55139e-06
8.54283e-05
-1.30466e-06
8.62399e-05
3.90651e-06
9.08774e-06
8.70916e-05
8.2541e-05
-3.76926e-05
-8.27315e-05
8.25e-05
-3.27038e-05
8.25983e-05
-2.76772e-05
8.28313e-05
-2.25799e-05
8.31891e-05
-1.74452e-05
8.36602e-05
-1.22887e-05
8.42319e-05
-7.12315e-06
8.48911e-05
-1.96384e-06
8.56237e-05
3.17391e-06
8.2945e-06
8.6417e-05
8.27139e-05
-3.74161e-05
-8.29904e-05
8.25793e-05
-3.25692e-05
8.25779e-05
-2.76758e-05
8.27072e-05
-2.27092e-05
8.29601e-05
-1.76982e-05
8.33284e-05
-1.2657e-05
8.38028e-05
-7.59761e-06
8.43737e-05
-2.53477e-06
8.50306e-05
2.51706e-06
7.56127e-06
8.57638e-05
8.28272e-05
-3.70614e-05
-8.31819e-05
8.2609e-05
-3.2351e-05
8.25198e-05
-2.75867e-05
8.25584e-05
-2.27477e-05
8.27196e-05
-1.78594e-05
8.29974e-05
-1.29347e-05
8.33852e-05
-7.98545e-06
8.3876e-05
-3.02557e-06
8.4462e-05
1.93109e-06
6.8871e-06
8.51362e-05
8.2889e-05
-3.66358e-05
-8.33145e-05
8.2596e-05
-3.2058e-05
8.24292e-05
-2.74199e-05
8.23881e-05
-2.27066e-05
8.2469e-05
-1.79402e-05
8.26673e-05
-1.3133e-05
8.29784e-05
-8.29655e-06
8.33971e-05
-3.44431e-06
8.39178e-05
1.41042e-06
6.26944e-06
8.45354e-05
8.29068e-05
-3.61462e-05
-8.33964e-05
8.25468e-05
-3.1698e-05
8.23112e-05
-2.71844e-05
8.21998e-05
-2.25953e-05
8.221e-05
-1.79504e-05
8.23384e-05
-1.32614e-05
8.25816e-05
-8.53976e-06
8.29359e-05
-3.79861e-06
8.33971e-05
9.49237e-07
5.7048e-06
8.39617e-05
8.28874e-05
-3.55988e-05
-8.34347e-05
8.24673e-05
-3.1278e-05
8.21705e-05
-2.68875e-05
8.1997e-05
-2.24218e-05
8.19448e-05
-1.78982e-05
8.20115e-05
-1.33281e-05
8.21946e-05
-8.72287e-06
8.24914e-05
-4.09538e-06
8.28988e-05
5.41884e-07
5.1892e-06
8.34144e-05
8.28368e-05
-3.49996e-05
-8.3436e-05
8.23631e-05
-3.08042e-05
8.20117e-05
-2.65362e-05
8.1783e-05
-2.21931e-05
8.16756e-05
-1.77908e-05
8.16877e-05
-1.33402e-05
8.18175e-05
-8.85267e-06
8.20629e-05
-4.34083e-06
8.24217e-05
1.83079e-07
4.71859e-06
8.28923e-05
8.27604e-05
-3.43537e-05
-8.34063e-05
8.22386e-05
-3.02824e-05
8.18386e-05
-2.61361e-05
8.15608e-05
-2.19153e-05
8.14043e-05
-1.76343e-05
8.1368e-05
-1.33039e-05
8.14503e-05
-8.93502e-06
8.16499e-05
-4.54041e-06
8.1965e-05
-1.31996e-07
4.28904e-06
8.23945e-05
8.26631e-05
-3.36662e-05
-8.33506e-05
8.20983e-05
-2.97177e-05
8.16548e-05
-2.56926e-05
8.13332e-05
-2.15937e-05
8.1133e-05
-1.74341e-05
8.10534e-05
-1.32242e-05
8.10934e-05
-8.97504e-06
8.12519e-05
-4.69892e-06
8.15276e-05
-4.07682e-07
3.89684e-06
8.19198e-05
8.25488e-05
-3.29412e-05
-8.32738e-05
8.19456e-05
-2.91145e-05
8.14632e-05
-2.52102e-05
8.11025e-05
-2.1233e-05
8.08633e-05
-1.71949e-05
8.07451e-05
-1.3106e-05
8.07472e-05
-8.97716e-06
8.08688e-05
-4.82058e-06
8.1109e-05
-6.4784e-07
3.53859e-06
8.14672e-05
8.24214e-05
-3.21828e-05
-8.31798e-05
8.17838e-05
-2.84768e-05
8.12666e-05
-2.4693e-05
8.08709e-05
-2.08373e-05
8.05967e-05
-1.69207e-05
8.04438e-05
-1.29531e-05
8.04119e-05
-8.94525e-06
8.05004e-05
-4.90905e-06
8.07085e-05
-8.55901e-07
3.21119e-06
8.10359e-05
8.2284e-05
-3.13945e-05
-8.30723e-05
8.16156e-05
-2.78085e-05
8.10673e-05
-2.41447e-05
8.06401e-05
-2.04101e-05
8.03345e-05
-1.66151e-05
8.01505e-05
-1.27691e-05
8.0088e-05
-8.88273e-06
8.01466e-05
-4.9676e-06
8.03256e-05
-1.0349e-06
2.91187e-06
8.06249e-05
8.21393e-05
-3.05794e-05
-8.29544e-05
8.14433e-05
-2.71125e-05
8.0867e-05
-2.35684e-05
8.04117e-05
-1.99548e-05
8.00779e-05
-1.62813e-05
7.98659e-05
-1.25571e-05
7.97757e-05
-8.79256e-06
7.98072e-05
-4.99906e-06
7.99598e-05
-1.18755e-06
2.63812e-06
8.02336e-05
8.19897e-05
-2.97403e-05
-8.28288e-05
8.1269e-05
-2.63918e-05
8.06676e-05
-2.29671e-05
8.01869e-05
-1.94741e-05
7.98277e-05
-1.59221e-05
7.95904e-05
-1.23198e-05
7.94752e-05
-8.67739e-06
7.94821e-05
-5.00599e-06
7.96108e-05
-1.31623e-06
2.38769e-06
7.98612e-05
8.18372e-05
-2.88797e-05
-8.26978e-05
8.10944e-05
-2.56489e-05
8.04704e-05
-2.23431e-05
7.99669e-05
-1.89706e-05
7.95847e-05
-1.55399e-05
7.93245e-05
-1.20596e-05
7.91867e-05
-8.53958e-06
7.91713e-05
-4.99061e-06
7.92781e-05
-1.42308e-06
2.15857e-06
7.95073e-05
8.16837e-05
-2.79999e-05
-8.25635e-05
8.09209e-05
-2.48861e-05
8.02766e-05
-2.16989e-05
7.97525e-05
-1.84464e-05
7.93495e-05
-1.51369e-05
7.90686e-05
-1.17787e-05
7.89102e-05
-8.38119e-06
7.88745e-05
-4.95495e-06
7.89615e-05
-1.51002e-06
1.94895e-06
7.91711e-05
8.15305e-05
-2.71027e-05
-8.24276e-05
8.07497e-05
-2.41054e-05
8.00872e-05
-2.10363e-05
7.95444e-05
-1.79036e-05
7.91226e-05
-1.47152e-05
7.88229e-05
-1.14789e-05
7.86458e-05
-8.20409e-06
7.85917e-05
-4.90078e-06
7.86604e-05
-1.57876e-06
1.75719e-06
7.88521e-05
8.13789e-05
-2.619e-05
-8.22916e-05
8.0582e-05
-2.33085e-05
7.99028e-05
-2.03571e-05
7.93432e-05
-1.7344e-05
7.89045e-05
-1.42764e-05
7.85876e-05
-1.11621e-05
7.83935e-05
-8.00996e-06
7.83224e-05
-4.82972e-06
7.83745e-05
-1.63084e-06
1.58183e-06
7.85499e-05
8.12299e-05
-2.52633e-05
-8.21566e-05
8.04184e-05
-2.2497e-05
7.97243e-05
-1.9663e-05
7.91494e-05
-1.67691e-05
7.86952e-05
-1.38222e-05
7.83628e-05
-1.08297e-05
7.81531e-05
-7.80028e-06
7.80666e-05
-4.74321e-06
7.81034e-05
-1.66765e-06
1.42153e-06
7.82637e-05
8.10843e-05
-2.4324e-05
-8.20237e-05
8.02597e-05
-2.16724e-05
7.95521e-05
-1.89554e-05
7.89634e-05
-1.61804e-05
7.84951e-05
-1.33539e-05
7.81485e-05
-1.04832e-05
7.79247e-05
-7.5764e-06
7.7824e-05
-4.64256e-06
7.78468e-05
-1.69044e-06
1.27509e-06
7.79932e-05
8.0943e-05
-2.33732e-05
-8.18937e-05
8.01065e-05
-2.08359e-05
7.93866e-05
-1.82355e-05
7.87853e-05
-1.55791e-05
7.83042e-05
-1.28728e-05
7.79447e-05
-1.01237e-05
7.77079e-05
-7.33954e-06
7.75943e-05
-4.52895e-06
7.76042e-05
-1.70036e-06
1.1414e-06
7.77379e-05
8.08063e-05
-2.24122e-05
-8.17673e-05
7.99591e-05
-1.99887e-05
7.92281e-05
-1.75045e-05
7.86153e-05
-1.49663e-05
7.81226e-05
-1.23801e-05
7.77513e-05
-9.75243e-06
7.75026e-05
-7.0908e-06
7.73771e-05
-4.40346e-06
7.73752e-05
-1.69844e-06
1.01946e-06
7.74971e-05
8.06749e-05
-2.14419e-05
-8.16452e-05
7.98179e-05
-1.91317e-05
7.90768e-05
-1.67634e-05
7.84537e-05
-1.43432e-05
7.79503e-05
-1.18768e-05
7.75683e-05
-9.37038e-06
7.73087e-05
-6.83119e-06
7.71722e-05
-4.26705e-06
7.71594e-05
-1.68564e-06
9.08356e-07
7.72705e-05
8.0549e-05
-2.04632e-05
-8.15277e-05
7.96832e-05
-1.8266e-05
7.89329e-05
-1.60131e-05
7.83003e-05
-1.37106e-05
7.77873e-05
-1.13637e-05
7.73954e-05
-8.97846e-06
7.71258e-05
-6.56161e-06
7.69794e-05
-4.12062e-06
7.69565e-05
-1.66282e-06
8.07245e-07
7.70576e-05
8.04289e-05
-1.94768e-05
-8.14152e-05
7.95551e-05
-1.73922e-05
7.87965e-05
-1.52545e-05
7.81553e-05
-1.30694e-05
7.76334e-05
-1.08419e-05
7.72325e-05
-8.57753e-06
7.69537e-05
-6.28289e-06
7.67981e-05
-3.96499e-06
7.67661e-05
-1.63077e-06
7.1535e-07
7.6858e-05
8.03148e-05
-1.84836e-05
-8.1308e-05
7.94337e-05
-1.65112e-05
7.86676e-05
-1.44883e-05
7.80185e-05
-1.24203e-05
7.74886e-05
-1.03119e-05
7.70794e-05
-8.16836e-06
7.67923e-05
-5.9958e-06
7.66282e-05
-3.8009e-06
7.65877e-05
-1.59023e-06
6.31961e-07
7.66711e-05
8.02068e-05
-1.74842e-05
-8.12063e-05
7.93192e-05
-1.56236e-05
7.85462e-05
-1.37153e-05
7.789e-05
-1.17642e-05
7.73527e-05
-9.77461e-06
7.6936e-05
-7.75164e-06
7.66412e-05
-5.70103e-06
7.64694e-05
-3.62904e-06
7.6421e-05
-1.54186e-06
5.56417e-07
7.64966e-05
8.01051e-05
-1.64792e-05
-8.11102e-05
7.92116e-05
-1.47301e-05
7.84324e-05
-1.2936e-05
7.77697e-05
-1.11015e-05
7.72257e-05
-9.23059e-06
7.68021e-05
-7.32803e-06
7.65003e-05
-5.39922e-06
7.63213e-05
-3.45004e-06
7.62657e-05
-1.4863e-06
4.88105e-07
7.6334e-05
8.00097e-05
-1.54691e-05
-8.10198e-05
7.91109e-05
-1.38312e-05
7.8326e-05
-1.21511e-05
7.76574e-05
-1.04329e-05
7.71073e-05
-8.68046e-06
7.66774e-05
-6.89813e-06
7.63691e-05
-5.09098e-06
7.61836e-05
-3.26449e-06
7.61214e-05
-1.42412e-06
4.26455e-07
7.6183e-05
7.99207e-05
-1.44544e-05
-8.09353e-05
7.9017e-05
-1.29275e-05
7.8227e-05
-1.13611e-05
7.7553e-05
-9.75901e-06
7.69974e-05
-8.12477e-06
7.65617e-05
-6.46249e-06
7.62476e-05
-4.77684e-06
7.6056e-05
-3.07294e-06
7.59878e-05
-1.35586e-06
3.70937e-07
7.60433e-05
7.98379e-05
-1.34358e-05
-8.08566e-05
7.89299e-05
-1.20194e-05
7.81353e-05
-1.05665e-05
7.74565e-05
-9.08026e-06
7.68958e-05
-7.56404e-06
7.64549e-05
-6.02162e-06
7.61354e-05
-4.45733e-06
7.59384e-05
-2.8759e-06
7.58645e-05
-1.28202e-06
3.21054e-07
7.59144e-05
7.97615e-05
-1.24134e-05
-8.07838e-05
7.88495e-05
-1.11075e-05
7.80508e-05
-9.76777e-06
7.73677e-05
-8.39715e-06
7.68024e-05
-6.99874e-06
7.63568e-05
-5.576e-06
7.60324e-05
-4.13292e-06
7.58303e-05
-2.67384e-06
7.57514e-05
-1.20308e-06
2.7634e-07
7.57961e-05
7.96913e-05
-1.1388e-05
-8.07168e-05
7.87759e-05
-1.01922e-05
7.79735e-05
-8.96534e-06
7.72864e-05
-7.71013e-06
7.6717e-05
-6.42932e-06
7.62671e-05
-5.12609e-06
7.59382e-05
-3.80405e-06
7.57316e-05
-2.4672e-06
7.5648e-05
-1.11947e-06
2.36354e-07
7.5688e-05
7.96273e-05
-1.03597e-05
-8.06556e-05
7.87089e-05
-9.27378e-06
7.79032e-05
-8.15963e-06
7.72127e-05
-7.0196e-06
7.66395e-05
-5.8562e-06
7.61857e-05
-4.67229e-06
7.58528e-05
-3.47116e-06
7.5642e-05
-2.25641e-06
7.55542e-05
-1.03161e-06
2.00679e-07
7.55899e-05
7.95695e-05
-9.32896e-06
-8.06002e-05
7.86484e-05
-8.35273e-06
7.78398e-05
-7.35104e-06
7.71462e-05
-6.32597e-06
7.65698e-05
-5.27977e-06
7.61125e-05
-4.21501e-06
7.5776e-05
-3.13463e-06
7.55614e-05
-2.04186e-06
7.54697e-05
-9.39904e-07
1.68921e-07
7.55015e-05
7.95177e-05
-8.2962e-06
-8.05505e-05
7.85944e-05
-7.4294e-06
7.77833e-05
-6.53993e-06
7.70869e-05
-5.62961e-06
7.65076e-05
-4.70041e-06
7.60472e-05
-3.75463e-06
7.57074e-05
-2.79484e-06
7.54895e-05
-1.82392e-06
7.53943e-05
-8.44724e-07
1.40701e-07
7.54225e-05
7.94721e-05
-7.26174e-06
-8.05065e-05
7.85468e-05
-6.50413e-06
7.77335e-05
-5.72666e-06
7.70348e-05
-4.93087e-06
7.64528e-05
-4.11848e-06
7.59897e-05
-3.29149e-06
7.5647e-05
-2.45215e-06
7.54261e-05
-1.60297e-06
7.53278e-05
-7.4643e-07
1.15656e-07
7.53528e-05
7.94323e-05
-6.22592e-06
-8.04682e-05
7.85055e-05
-5.57727e-06
7.76904e-05
-4.91156e-06
7.69896e-05
-4.23009e-06
7.64054e-05
-3.53432e-06
7.59399e-05
-2.82594e-06
7.55946e-05
-2.1069e-06
7.5371e-05
-1.37933e-06
7.527e-05
-6.45371e-07
9.34317e-08
7.52922e-05
7.93986e-05
-5.18906e-06
-8.04354e-05
7.84704e-05
-4.64914e-06
7.76538e-05
-4.09497e-06
7.69513e-05
-3.52759e-06
7.63653e-05
-2.94824e-06
7.58976e-05
-2.35831e-06
7.55502e-05
-1.75943e-06
7.53242e-05
-1.15336e-06
7.52207e-05
-5.41889e-07
7.36845e-08
7.52404e-05
7.93706e-05
-4.15148e-06
-8.04082e-05
7.84415e-05
-3.72006e-06
7.76238e-05
-3.27719e-06
7.69199e-05
-2.8237e-06
7.63322e-05
-2.36057e-06
7.58628e-05
-1.88892e-06
7.55134e-05
-1.41005e-06
7.52854e-05
-9.25372e-07
7.51799e-05
-4.36319e-07
5.60719e-08
7.51975e-05
7.93485e-05
-3.1135e-06
-8.03865e-05
7.84188e-05
-2.79033e-06
7.76001e-05
-2.45852e-06
7.68951e-05
-2.1187e-06
7.63061e-05
-1.7716e-06
7.58353e-05
-1.41807e-06
7.54843e-05
-1.05908e-06
7.52546e-05
-6.95702e-07
7.51473e-05
-3.28996e-07
4.02509e-08
7.51631e-05
7.93321e-05
-2.07541e-06
-8.03702e-05
7.8402e-05
-1.86023e-06
7.75828e-05
-1.63925e-06
7.68769e-05
-1.41289e-06
7.6287e-05
-1.18164e-06
7.5815e-05
-9.46081e-07
7.54628e-05
-7.06857e-07
7.52317e-05
-4.64681e-07
7.5123e-05
-2.2026e-07
2.58724e-08
7.51374e-05
7.93214e-05
-1.0375e-06
-8.03593e-05
7.83912e-05
-9.30042e-07
7.75716e-05
-8.19652e-07
7.68653e-05
-7.06552e-07
7.62747e-05
-5.90998e-07
7.58019e-05
-4.73275e-07
7.54487e-05
-3.5371e-07
7.52167e-05
-2.32656e-07
7.51069e-05
-1.1047e-07
1.25797e-08
7.51202e-05
7.93164e-05
-8.03539e-05
7.83863e-05
7.75667e-05
7.68601e-05
7.62691e-05
7.57958e-05
7.54421e-05
7.52095e-05
7.5099e-05
7.51116e-05
7.76398e-05
7.1163e-07
7.75815e-05
1.44975e-06
7.75276e-05
2.13689e-06
7.74771e-05
2.89905e-06
7.74136e-05
3.67047e-06
7.7339e-05
4.45865e-06
7.72584e-05
5.28085e-06
7.71749e-05
6.1442e-06
7.70921e-05
7.05558e-06
7.70148e-05
8.02361e-06
7.69491e-05
9.05739e-06
7.69027e-05
1.01662e-05
7.68851e-05
1.13596e-05
7.69081e-05
1.26469e-05
7.69862e-05
1.40364e-05
7.71374e-05
1.55345e-05
7.73837e-05
1.7142e-05
7.77569e-05
1.8847e-05
7.83225e-05
2.06009e-05
2.22499e-05
7.76527e-05
6.86691e-07
7.76135e-05
1.48888e-06
7.75732e-05
2.1772e-06
7.75378e-05
2.93446e-06
7.74954e-05
3.71289e-06
7.7447e-05
4.50703e-06
7.73971e-05
5.3308e-06
7.7349e-05
6.1922e-06
7.7307e-05
7.09767e-06
7.72759e-05
8.05464e-06
7.72624e-05
9.07092e-06
7.72743e-05
1.01543e-05
7.73215e-05
1.13125e-05
7.74158e-05
1.25525e-05
7.75719e-05
1.38803e-05
7.78079e-05
1.52986e-05
7.81458e-05
1.68041e-05
7.8614e-05
1.83787e-05
7.92481e-05
1.99669e-05
2.14318e-05
7.76497e-05
6.76529e-07
7.76343e-05
1.50433e-06
7.76123e-05
2.19913e-06
7.75923e-05
2.95451e-06
7.75702e-05
3.73493e-06
7.7547e-05
4.53024e-06
7.75262e-05
5.35159e-06
7.75116e-05
6.20686e-06
7.75073e-05
7.10196e-06
7.75187e-05
8.04325e-06
7.75523e-05
9.03732e-06
7.7616e-05
1.00905e-05
7.77196e-05
1.12089e-05
7.78746e-05
1.23975e-05
7.8095e-05
1.36599e-05
7.83972e-05
1.49963e-05
7.88006e-05
1.64007e-05
7.93265e-05
1.78528e-05
7.99952e-05
1.92981e-05
2.0604e-05
7.76573e-05
6.70373e-07
7.76534e-05
1.50818e-06
7.76466e-05
2.20599e-06
7.76421e-05
2.95896e-06
7.76394e-05
3.73769e-06
7.76396e-05
4.53003e-06
7.76459e-05
5.34524e-06
7.76621e-05
6.19067e-06
7.76925e-05
7.07158e-06
7.77424e-05
7.99338e-06
7.78182e-05
8.96151e-06
7.79277e-05
9.98106e-06
7.808e-05
1.10565e-05
7.82862e-05
1.21913e-05
7.8559e-05
1.33872e-05
7.8913e-05
1.46424e-05
7.93644e-05
1.59492e-05
7.99301e-05
1.72872e-05
8.0624e-05
1.86042e-05
1.97741e-05
7.76681e-05
6.64828e-07
7.76727e-05
1.50358e-06
7.76782e-05
2.20046e-06
7.76881e-05
2.94909e-06
7.77031e-05
3.72276e-06
7.77246e-05
4.50845e-06
7.77558e-05
5.3141e-06
7.78e-05
6.14641e-06
7.78617e-05
7.00991e-06
7.7946e-05
7.90911e-06
7.80591e-05
8.84843e-06
7.82083e-05
9.83183e-06
7.84023e-05
1.08625e-05
7.86511e-05
1.19425e-05
7.89662e-05
1.30721e-05
7.93603e-05
1.42483e-05
7.98469e-05
1.54626e-05
8.04394e-05
1.66947e-05
8.11475e-05
1.7896e-05
1.89483e-05
7.76805e-05
6.58281e-07
7.76919e-05
1.49219e-06
7.77077e-05
2.18459e-06
7.77305e-05
2.92635e-06
7.77614e-05
3.69188e-06
7.78021e-05
4.46768e-06
7.78555e-05
5.26076e-06
7.79248e-05
6.07707e-06
7.80143e-05
6.92044e-06
7.81288e-05
7.79457e-06
7.82743e-05
8.70296e-06
7.84575e-05
9.64856e-06
7.86865e-05
1.06335e-05
7.89703e-05
1.16588e-05
7.93189e-05
1.27235e-05
7.97433e-05
1.38239e-05
8.02548e-05
1.49511e-05
8.0864e-05
1.60856e-05
8.15778e-05
1.71821e-05
1.81304e-05
7.76934e-05
6.50068e-07
7.77105e-05
1.47506e-06
7.77352e-05
2.1599e-06
7.77693e-05
2.89221e-06
7.78144e-05
3.64681e-06
7.78722e-05
4.40994e-06
7.79451e-05
5.1878e-06
7.80365e-05
5.98567e-06
7.81503e-05
6.8067e-06
7.8291e-05
7.65384e-06
7.84641e-05
8.5298e-06
7.8676e-05
9.43666e-06
7.89339e-05
1.03757e-05
7.92456e-05
1.1347e-05
7.96202e-05
1.2349e-05
8.00668e-05
1.33773e-05
8.05949e-05
1.44229e-05
8.12129e-05
1.54676e-05
8.19259e-05
1.64691e-05
1.73248e-05
7.77063e-05
6.40035e-07
7.77284e-05
1.45295e-06
7.77607e-05
2.12762e-06
7.78048e-05
2.84808e-06
7.78623e-05
3.58932e-06
7.79349e-05
4.33736e-06
7.80249e-05
5.09777e-06
7.81354e-05
5.87516e-06
7.82701e-05
6.67208e-06
7.84331e-05
7.49081e-06
7.86295e-05
8.33336e-06
7.88651e-05
9.20111e-06
7.91462e-05
1.00946e-05
7.94799e-05
1.10133e-05
7.98738e-05
1.1955e-05
8.03359e-05
1.29152e-05
8.08739e-05
1.3885e-05
8.14944e-05
1.4847e-05
8.22011e-05
1.57624e-05
1.65355e-05
7.7719e-05
6.28257e-07
7.77454e-05
1.4265e-06
7.77842e-05
2.08882e-06
7.7837e-05
2.79529e-06
7.79053e-05
3.52105e-06
7.79906e-05
4.25198e-06
7.80953e-05
4.99307e-06
7.82222e-05
5.74834e-06
7.83744e-05
6.5198e-06
7.85561e-05
7.30913e-06
7.87717e-05
8.11775e-06
7.90264e-05
8.94646e-06
7.93258e-05
9.79524e-06
7.96761e-05
1.0663e-05
8.00838e-05
1.15473e-05
8.05556e-05
1.24433e-05
8.1098e-05
1.33426e-05
8.1716e-05
1.4229e-05
8.24121e-05
1.50663e-05
1.57658e-05
7.77313e-05
6.14905e-07
7.77615e-05
1.3963e-06
7.78058e-05
2.04444e-06
7.7866e-05
2.7351e-06
7.79435e-05
3.44359e-06
7.80397e-05
4.15574e-06
7.81568e-05
4.87599e-06
7.82973e-05
5.60787e-06
7.84642e-05
6.35286e-06
7.86612e-05
7.11217e-06
7.88922e-05
7.88671e-06
7.91619e-05
8.67679e-06
7.94752e-05
9.48196e-06
7.98374e-05
1.03008e-05
8.02542e-05
1.11305e-05
8.0731e-05
1.19665e-05
8.12731e-05
1.28005e-05
8.18846e-05
1.36175e-05
8.25668e-05
1.43842e-05
1.5018e-05
7.77431e-05
6.00185e-07
7.77765e-05
1.36291e-06
7.78256e-05
1.99536e-06
7.7892e-05
2.66866e-06
7.79772e-05
3.3584e-06
7.80826e-05
4.0504e-06
7.82099e-05
4.74864e-06
7.83616e-05
5.45615e-06
7.85405e-05
6.17402e-06
7.87496e-05
6.90301e-06
7.89927e-05
7.64361e-06
7.92738e-05
8.39575e-06
7.95971e-05
9.15865e-06
7.99672e-05
9.93063e-06
8.03889e-05
1.07088e-05
8.08668e-05
1.14886e-05
8.14051e-05
1.22623e-05
8.20067e-05
1.30158e-05
8.26724e-05
1.37185e-05
1.4294e-05
7.77545e-05
5.8431e-07
7.77906e-05
1.32686e-06
7.78436e-05
1.94235e-06
7.79152e-05
2.59705e-06
7.80067e-05
3.26684e-06
7.81195e-05
3.93762e-06
7.82552e-05
4.61294e-06
7.8416e-05
5.29542e-06
7.86042e-05
5.98577e-06
7.88228e-05
6.6844e-06
7.9075e-05
7.39146e-06
7.93642e-05
8.10657e-06
7.96941e-05
8.82869e-06
8.00688e-05
9.55599e-06
8.0492e-05
1.02856e-05
8.09676e-05
1.10129e-05
8.1499e-05
1.17309e-05
8.20883e-05
1.24265e-05
8.27355e-05
1.30713e-05
1.35948e-05
7.77654e-05
5.67485e-07
7.78037e-05
1.28862e-06
7.78598e-05
1.88616e-06
7.79357e-05
2.52123e-06
7.80324e-05
3.17012e-06
7.81511e-05
3.81887e-06
7.82934e-05
4.47064e-06
7.84612e-05
5.12766e-06
7.86566e-05
5.79035e-06
7.88822e-05
6.45881e-06
7.91407e-05
7.1329e-06
7.94353e-05
7.81203e-06
7.9769e-05
8.49499e-06
8.01452e-05
9.17982e-06
8.05671e-05
9.86366e-06
8.10378e-05
1.05422e-05
8.15599e-05
1.12088e-05
8.21349e-05
1.18514e-05
8.27623e-05
1.24439e-05
1.29211e-05
7.77759e-05
5.49902e-07
7.78158e-05
1.24866e-06
7.78745e-05
1.82745e-06
7.79537e-05
2.44209e-06
7.80544e-05
3.06938e-06
7.81778e-05
3.69552e-06
7.83251e-05
4.3233e-06
7.84981e-05
4.95467e-06
7.86987e-05
5.58975e-06
7.89291e-05
6.2284e-06
7.91917e-05
6.87027e-06
7.94892e-05
7.51459e-06
7.98242e-05
8.16002e-06
8.01994e-05
8.80458e-06
8.06176e-05
9.44546e-06
8.10812e-05
1.00786e-05
8.15922e-05
1.06979e-05
8.21516e-05
1.1292e-05
8.27583e-05
1.18372e-05
1.22732e-05
7.77858e-05
5.31737e-07
7.78271e-05
1.20736e-06
7.78878e-05
1.76679e-06
7.79694e-05
2.36044e-06
7.80732e-05
2.96561e-06
7.82e-05
3.56875e-06
7.83509e-05
4.17234e-06
7.85276e-05
4.77802e-06
7.87316e-05
5.38571e-06
7.89649e-05
5.99506e-06
7.92296e-05
6.60557e-06
7.95279e-05
7.21631e-06
7.98621e-05
7.82588e-06
8.02343e-05
8.43232e-06
8.06469e-05
9.03291e-06
8.11016e-05
9.62387e-06
8.16001e-05
1.01994e-05
8.21428e-05
1.07493e-05
8.27283e-05
1.12516e-05
1.16508e-05
7.77953e-05
5.13146e-07
7.78376e-05