/*--------------------------------*- C++ -*----------------------------------*\
  =========                 |
  \\      /  F ield         | OpenFOAM: The Open Source CFD Toolbox
   \\    /   O peration     | Website:  https://openfoam.org
    \\  /    A nd           | Version:  6
     \\/     M anipulation  |
\*---------------------------------------------------------------------------*/
FoamFile
{
    version     2.0;
    format      ascii;
    class       volVectorField;
    location    "0.3";
    object      U;
}
// * * * * * * * * * * * * * * * * * * * * * * * * * * * * * * * * * * * * * //

dimensions      [0 1 -1 0 0 0 0];

internalField   nonuniform List<vector> 
5600
(
(1.0033 0.000367301 3.7566e-19)
(0.99986 0.000920297 -6.44671e-18)
(0.997593 0.00138404 6.43195e-18)
(0.995619 0.00186213 0)
(0.992947 0.00237395 0)
(0.989528 0.00291568 0)
(0.985415 0.00348997 -1.19973e-17)
(0.980578 0.00410469 1.19701e-17)
(0.974961 0.00476877 0)
(0.968504 0.00549184 0)
(0.961138 0.00628499 0)
(0.952776 0.0071612 0)
(0.943318 0.00813551 0)
(0.932644 0.00922505 -2.36195e-17)
(0.920614 0.0104485 2.35666e-17)
(0.907063 0.0118245 -4.70289e-17)
(0.891812 0.0133664 4.6924e-17)
(0.874667 0.0150715 0)
(0.855439 0.0168987 -3.64977e-19)
(0.833986 0.0187141 0)
(1.00383 0.00108717 -3.70423e-19)
(0.99996 0.00274539 6.35742e-18)
(0.997574 0.00411889 -6.34522e-18)
(0.995639 0.00553009 0)
(0.993002 0.00703261 0)
(0.989612 0.00861495 2.44934e-17)
(0.98554 0.0102867 7.98909e-23)
(0.980758 0.0120713 -7.39304e-19)
(0.975212 0.0139944 1.12717e-22)
(0.968844 0.0160841 -2.35711e-17)
(0.961587 0.0183724 0)
(0.95336 0.020897 -4.76982e-17)
(0.944069 0.0237011 4.68754e-17)
(0.933599 0.0268338 0)
(0.92182 0.0303484 0)
(0.908578 0.0342967 0)
(0.893703 0.0387151 0)
(0.877012 0.0435927 -4.64383e-17)
(0.858315 0.0488108 4.67132e-17)
(0.837382 0.0540276 4.55728e-17)
(1.00489 0.0018043 0)
(1.0002 0.00457454 0)
(0.997553 0.00684303 0)
(0.995705 0.00916584 0)
(0.99316 0.0116408 2.34714e-17)
(0.989847 0.0142466 -2.4169e-17)
(0.985874 0.0169979 -1.46263e-18)
(0.981222 0.0199332 -7.30232e-19)
(0.975839 0.0230949 2.33332e-17)
(0.969673 0.0265288 -2.18426e-17)
(0.962663 0.0302874 -1.45403e-18)
(0.954737 0.0344318 4.71869e-17)
(0.945812 0.0390323 -4.78423e-17)
(0.935789 0.0441683 1.44764e-18)
(0.924553 0.049925 4.62572e-17)
(0.91197 0.0563851 -9.38222e-17)
(0.897887 0.0636061 -1.44186e-18)
(0.882134 0.0715698 4.60545e-17)
(0.864522 0.0800845 -1.43711e-18)
(0.844738 0.0886192 -7.17888e-19)
(1.00649 0.00252763 0)
(1.00058 0.00638413 -1.44816e-18)
(0.997544 0.00951717 0)
(0.995841 0.0127195 0)
(0.993453 0.0161342 0)
(0.990274 0.01973 0)
(0.986467 0.0235248 1.44111e-18)
(0.982032 0.0275711 2.44749e-17)
(0.976917 0.0319271 -2.30126e-17)
(0.971078 0.0366551 -1.43689e-18)
(0.964465 0.0418261 2.87095e-18)
(0.95702 0.0475228 0)
(0.948677 0.05384 -4.4413e-17)
(0.939358 0.060884 4.43692e-17)
(0.928973 0.068769 4.57561e-17)
(0.917416 0.0776054 -4.5711e-17)
(0.904563 0.0874705 9.27607e-17)
(0.890266 0.098342 -9.12434e-17)
(0.874349 0.109966 1.4243e-18)
(0.856451 0.121655 1.4235e-18)
(1.00861 0.0032466 -5.62436e-18)
(1.00108 0.00815356 7.10126e-18)
(0.997545 0.0121051 -1.13575e-17)
(0.996054 0.0161377 -1.13528e-17)
(0.993889 0.0204434 2.26962e-17)
(0.990902 0.0249787 2.26868e-17)
(0.987333 0.0297617 -2.26773e-17)
(0.983201 0.0348573 1.41674e-18)
(0.978459 0.0403374 1.41615e-18)
(0.973071 0.0462787 4.5298e-17)
(0.967003 0.0527684 -9.05577e-17)
(0.960216 0.0599073 1.41409e-18)
(0.952664 0.0678107 4.66543e-17)
(0.944298 0.0766074 1.41317e-18)
(0.935059 0.0864351 -4.379e-17)
(0.924882 0.0974266 4.80069e-17)
(0.913677 0.109676 1.41136e-18)
(0.901332 0.123156 0)
(0.887704 0.13756 1.41015e-18)
(0.872413 0.152064 1.40995e-18)
(1.01126 0.00395375 5.5038e-18)
(1.0017 0.00985908 -5.56053e-18)
(0.997554 0.0145674 1.39045e-18)
(0.996346 0.0193686 0)
(0.994472 0.0245055 2.22566e-17)
(0.991733 0.0299178 -2.22612e-17)
(0.988468 0.0356202 1.39161e-18)
(0.984721 0.0416872 -4.73246e-17)
(0.98045 0.0482027 -2.78453e-18)
(0.975629 0.0552549 8.91177e-17)
(0.970241 0.0629437 -4.73532e-17)
(0.964271 0.0713839 -1.39303e-18)
(0.957699 0.0807062 -4.73722e-17)
(0.950508 0.0910558 -4.59882e-17)
(0.94268 0.102587 8.78115e-17)
(0.934193 0.115448 8.64349e-17)
(0.925005 0.129743 -9.06338e-17)
(0.915043 0.145443 8.78623e-17)
(0.904218 0.16219 -1.79941e-16)
(0.892159 0.179049 8.79089e-17)
(1.01442 0.00464638 0)
(1.0024 0.0114734 0)
(0.997564 0.0168587 -1.35943e-18)
(0.996724 0.0223586 2.17701e-17)
(0.995203 0.0282601 -2.17894e-17)
(0.992762 0.0344776 -1.36304e-18)
(0.98986 0.0410185 -1.36425e-18)
(0.986572 0.0479651 1.36546e-18)
(0.982856 0.0554108 1.36666e-18)
(0.978701 0.0634522 0)
(0.974111 0.072198 4.51791e-17)
(0.969093 0.0817721 1.94906e-22)
(0.96366 0.0923148 -4.25153e-17)
(0.957829 0.103981 -8.64783e-17)
(0.951625 0.116933 1.75855e-16)
(0.945078 0.131326 -8.6629e-17)
(0.938198 0.147269 8.80812e-17)
(0.930961 0.164729 -8.67798e-17)
(0.923335 0.183312 -8.82341e-17)
(0.91499 0.202002 8.69347e-17)
(1.01807 0.00534461 0)
(1.00315 0.0129574 1.32481e-18)
(0.997565 0.0189194 -2.12315e-17)
(0.997193 0.0250567 2.25948e-17)
(0.996084 0.0316552 -2.12999e-17)
(0.993978 0.038597 2.40009e-17)
(0.991488 0.0458844 0)
(0.988719 0.0536058 1.33768e-18)
(0.98563 0.0618611 0)
(0.982221 0.0707519 -1.342e-18)
(0.97852 0.0803911 4.30136e-17)
(0.97456 0.0909066 -4.30829e-17)
(0.970384 0.102441 -8.63052e-17)
(0.966048 0.115152 8.50935e-17)
(0.961622 0.1292 0)
(0.957189 0.144741 0)
(0.952817 0.16188 8.68637e-17)
(0.948534 0.18059 1.88865e-22)
(0.944382 0.200457 -8.71439e-17)
(0.940083 0.220455 8.86427e-17)
(1.02217 0.00617941 -4.46595e-18)
(1.00384 0.0142184 4.51609e-18)
(0.997559 0.0206607 0)
(0.997784 0.027458 -1.94474e-18)
(0.997115 0.0347142 -2.07932e-17)
(0.995366 0.0423054 -2.21454e-17)
(0.993328 0.0502568 8.35696e-17)
(0.991125 0.0586611 -4.31935e-17)
(0.988713 0.0676192 -4.19849e-17)
(0.986107 0.0772347 4.34005e-17)
(0.983356 0.0876205 -8.43729e-17)
(0.980519 0.0989025 1.69151e-16)
(0.97767 0.111219 1.97404e-22)
(0.9749 0.124717 -8.49831e-17)
(0.972327 0.139548 0)
(0.970087 0.155855 8.53938e-17)
(0.968312 0.173737 -1.712e-16)
(0.967094 0.193174 8.58071e-17)
(0.966589 0.213767 0)
(0.96663 0.234489 0)
(1.02671 0.00735262 -5.57895e-18)
(1.00417 0.015021 4.38957e-18)
(0.997662 0.0219459 0)
(0.998636 0.0295868 2.08262e-17)
(0.998337 0.0374975 -2.02594e-17)
(0.996945 0.0456667 -4.0648e-17)
(0.995404 0.0542157 -5.66115e-23)
(0.993808 0.0632371 8.18173e-17)
(0.992109 0.0728246 -8.20799e-17)
(0.990342 0.083082 4.1172e-17)
(0.988574 0.0941212 -8.26095e-17)
(0.986886 0.106062 8.28762e-17)
(0.985376 0.119031 -8.31445e-17)
(0.98417 0.133161 8.34141e-17)
(0.983425 0.148579 8.36851e-17)
(0.983328 0.165398 -8.39576e-17)
(0.984083 0.183691 0)
(0.985878 0.203461 -8.45063e-17)
(0.989006 0.224449 8.47831e-17)
(0.993429 0.245648 8.50379e-17)
(0.807065 0.0202972 0)
(0.770492 0.0224713 0)
(0.726552 0.0249654 4.24896e-17)
(0.673225 0.0278245 -2.30632e-17)
(0.607834 0.0310458 -2.52199e-17)
(0.526991 0.0344649 4.17221e-17)
(0.427145 0.0375195 -1.54955e-17)
(0.30496 0.0388852 3.4968e-17)
(0.159483 0.0359296 0)
(0.0444744 0.0202934 0)
(0.811205 0.0588934 -1.84367e-17)
(0.775451 0.0655157 -5.94241e-17)
(0.732314 0.0731389 -2.13722e-17)
(0.679921 0.0818982 2.32008e-17)
(0.615591 0.0917899 2.53663e-17)
(0.535894 0.102308 -5.59409e-17)
(0.43715 0.11176 4.67324e-17)
(0.315771 0.116087 -8.78352e-17)
(0.1698 0.10697 -1.00588e-17)
(0.050554 0.0606208 6.43075e-17)
(0.820085 0.09663 1.85128e-17)
(0.785847 0.107547 -1.98901e-17)
(0.74426 0.120139 4.29235e-17)
(0.693676 0.134603 4.6602e-17)
(0.631403 0.15093 -5.09608e-17)
(0.553923 0.16827 -2.80998e-17)
(0.457293 0.183821 3.13076e-17)
(0.337291 0.190831 -5.29688e-17)
(0.190309 0.175252 8.09054e-17)
(0.062723 0.0994851 -1.52898e-16)
(0.834109 0.132629 3.7052e-17)
(0.80196 0.147686 0)
(0.762544 0.165045 0)
(0.714522 0.184933 -4.66371e-17)
(0.655169 0.207336 5.0999e-17)
(0.580827 0.231054 1.95941e-21)
(0.487165 0.252196 0)
(0.368994 0.26142 7.06884e-17)
(0.220436 0.239338 -6.07307e-17)
(0.0805941 0.135711 1.88355e-16)
(0.853083 0.165638 -3.69565e-17)
(0.8235 0.184545 0)
(0.786774 0.206357 8.56706e-17)
(0.74196 0.231284 0)
(0.686262 0.259301 5.08429e-17)
(0.615835 0.288862 5.60664e-17)
(0.525847 0.315009 0)
(0.409866 0.32595 1.40874e-16)
(0.25915 0.297463 -2.01683e-17)
(0.103496 0.168212 -7.0347e-17)
(0.876399 0.194742 1.84771e-21)
(0.849761 0.217106 -1.57842e-16)
(0.816148 0.242958 -2.46651e-21)
(0.775072 0.272438 0)
(0.723626 0.305507 -5.05093e-17)
(0.657735 0.34027 -5.56777e-17)
(0.571968 0.370739 0)
(0.458428 0.382829 -1.39793e-16)
(0.305005 0.348062 -1.59987e-16)
(0.130517 0.196054 2.32363e-17)
(0.903182 0.219313 6.83841e-22)
(0.879749 0.244698 1.01024e-21)
(0.849569 0.274123 1.68651e-16)
(0.812634 0.307617 -1.18112e-21)
(0.765881 0.345115 -9.99826e-17)
(0.704966 0.384356 -1.1017e-16)
(0.623786 0.418352 -3.06553e-17)
(0.512809 0.430912 3.45341e-17)
(0.356196 0.389955 1.18482e-16)
(0.160515 0.218497 2.29179e-16)
(0.932423 0.239024 -1.60806e-21)
(0.912268 0.267036 7.7213e-17)
(0.885703 0.299566 -1.66496e-16)
(0.853168 0.336527 -4.51525e-17)
(0.811363 0.377801 2.46563e-16)
(0.755675 0.420741 1.08619e-16)
(0.679282 0.457388 -1.20801e-16)
(0.57091 0.46965 0)
(0.410745 0.422552 3.88349e-17)
(0.192213 0.235129 -4.05132e-16)
(0.963055 0.253964 -1.1279e-21)
(0.94572 0.284208 -7.6017e-17)
(0.922771 0.319435 3.69494e-21)
(0.894755 0.359377 -8.88309e-17)
(0.858045 0.40383 9.69634e-17)
(0.807822 0.449744 5.33623e-17)
(0.736502 0.488211 5.9308e-17)
(0.630913 0.499455 -3.33436e-17)
(0.466934 0.446237 3.80409e-17)
(0.224352 0.246046 1.76134e-16)
(0.993081 0.265621 -6.95457e-17)
(0.977497 0.297648 -7.4616e-17)
(0.958332 0.335215 8.0386e-17)
(0.935007 0.377672 8.71055e-17)
(0.903692 0.424605 -1.90078e-16)
(0.859394 0.472475 0)
(0.793566 0.511473 0)
(0.690764 0.520499 -3.25935e-17)
(0.522215 0.460936 3.71354e-17)
(0.254973 0.251017 0)
(1.02127 0.284423 6.80153e-17)
(1.00661 0.317425 7.30543e-17)
(0.991034 0.355345 0)
(0.971586 0.39802 -8.5447e-17)
(0.944693 0.444236 0)
(0.904954 0.48973 -1.02807e-16)
(0.842715 0.524189 -5.71825e-17)
(0.740518 0.526672 -6.43732e-17)
(0.566483 0.460048 -1.47122e-16)
(0.278612 0.246673 1.70677e-16)
(1.05228 0.301438 1.50512e-21)
(1.04105 0.334901 -1.48573e-16)
(1.02892 0.37227 2.08598e-21)
(1.01287 0.413831 8.69315e-17)
(0.989301 0.457507 0)
(0.952093 0.498255 1.04664e-16)
(0.8904 0.525398 0)
(0.785169 0.518672 1.31209e-16)
(0.602983 0.443761 1.44483e-20)
(0.296101 0.232694 -1.74175e-16)
(1.08469 0.31423 7.01404e-17)
(1.07734 0.347189 -7.53543e-17)
(1.06852 0.383348 2.43854e-16)
(1.05544 0.422828 -8.82161e-17)
(1.03427 0.462852 -9.64156e-17)
(0.998203 0.497757 -5.31351e-17)
(0.935308 0.516687 2.27817e-21)
(0.825326 0.500342 6.66738e-17)
(0.634033 0.417693 2.67e-16)
(0.309358 0.213099 4.43132e-17)
(1.11813 0.322003 -1.41951e-16)
(1.11438 0.353731 0)
(1.10851 0.387954 -4.21978e-21)
(1.09778 0.424416 8.93039e-17)
(1.07803 0.459801 2.44084e-16)
(1.04176 0.488033 5.38168e-17)
(0.976144 0.498351 1.1988e-16)
(0.860049 0.472767 -1.01376e-16)
(0.658989 0.383954 -1.93453e-16)
(0.318282 0.189738 1.79899e-16)
(1.15188 0.324436 7.1648e-17)
(1.15123 0.354283 7.69815e-17)
(1.14773 0.385857 -1.66136e-16)
(1.1385 0.418448 -4.50942e-17)
(1.11895 0.448333 -1.97224e-16)
(1.08094 0.469228 -1.63118e-16)
(1.01093 0.470768 -2.42299e-16)
(0.887339 0.436674 1.36658e-16)
(0.676136 0.343784 0)
(0.322262 0.163762 -2.04833e-16)
(1.18495 0.321287 1.08208e-16)
(1.18676 0.348678 0)
(1.18482 0.37698 0)
(1.17603 0.405006 0)
(1.15532 0.42876 0)
(1.11393 0.441959 1.09562e-16)
(1.03788 0.434917 1.22087e-16)
(0.905612 0.393424 0)
(0.684397 0.298815 0)
(0.321088 0.136357 -9.18308e-17)
(1.21627 0.312536 -3.6223e-17)
(1.21974 0.336989 -8.74538e-22)
(1.2184 0.361513 -4.2006e-17)
(1.20884 0.384468 4.56119e-17)
(1.18548 0.401731 -4.98873e-17)
(1.13911 0.40722 1.3758e-16)
(1.05556 0.39219 -3.06671e-17)
(0.913846 0.34477 6.92123e-17)
(0.683352 0.25092 -1.98317e-17)
(0.314919 0.108692 9.2342e-17)
(1.2448 0.298397 7.25604e-17)
(1.24901 0.319547 -3.89836e-17)
(1.24715 0.339929 0)
(1.23549 0.357511 -4.56883e-17)
(1.20799 0.368201 0)
(1.15515 0.366303 -5.51281e-17)
(1.06297 0.344232 -3.07196e-17)
(0.911547 0.292628 3.46685e-17)
(0.673122 0.201981 0)
(0.304178 0.0818274 -1.15659e-17)
(1.26958 0.279286 -5.43601e-17)
(1.27351 0.296911 3.89398e-17)
(1.26996 0.312941 0)
(1.25491 0.325053 0)
(1.22192 0.329338 4.99111e-17)
(1.16142 0.320662 -2.75306e-17)
(1.05991 0.292784 -3.06818e-17)
(0.899072 0.238925 -6.9255e-17)
(0.654503 0.153806 3.96885e-17)
(0.289551 0.0567007 -5.19731e-17)
(1.28984 0.25582 5.41574e-17)
(1.2926 0.269732 -5.80988e-22)
(1.28632 0.281228 -2.09311e-17)
(1.26667 0.28784 0)
(1.22697 0.286022 -2.48561e-17)
(1.15779 0.271402 -1.37077e-17)
(1.04649 0.239244 3.81912e-17)
(0.876787 0.185325 8.61879e-18)
(0.628072 0.108054 -4.44453e-17)
(0.27147 0.0341264 5.17241e-17)
(1.03296 0.259977 -4.18698e-16)
(1.06185 0.27549 1.03568e-16)
(1.09129 0.287458 0)
(1.1216 0.295113 1.02444e-16)
(1.15238 0.298184 -3.09615e-23)
(1.18273 0.296449 -1.56623e-18)
(1.21177 0.289834 7.79154e-19)
(1.23862 0.278448 -5.00449e-17)
(1.26246 0.262566 4.9887e-17)
(1.28245 0.242728 -2.4696e-17)
(1.04178 0.24669 2.08804e-16)
(1.06841 0.259594 0)
(1.09543 0.2697 0)
(1.12318 0.276241 1.00704e-16)
(1.15152 0.278905 1.57448e-18)
(1.17963 0.277487 -7.82344e-19)
(1.20673 0.271896 7.78467e-19)
(1.23205 0.262184 4.88453e-17)
(1.25494 0.248539 -4.94679e-17)
(1.27446 0.231437 2.46813e-17)
(1.05038 0.23551 0)
(1.07444 0.246181 -1.03203e-16)
(1.09897 0.254357 1.02267e-16)
(1.1242 0.259595 -1.01459e-16)
(1.1501 0.261594 0)
(1.17594 0.260163 -7.82648e-19)
(1.20103 0.255207 -9.89282e-17)
(1.22473 0.246746 0)
(1.24651 0.234902 0)
(1.2654 0.220085 -2.4709e-17)
(1.05804 0.224855 0)
(1.07993 0.233548 1.04757e-21)
(1.10218 0.240052 -1.02184e-16)
(1.12503 0.24413 1.01421e-16)
(1.14855 0.245509 7.87247e-19)
(1.17212 0.244016 -1.01003e-16)
(1.19518 0.239556 -3.34851e-22)
(1.21719 0.232119 0)
(1.23773 0.221782 0)
(1.25582 0.20888 0)
(1.0644 0.214566 -1.03809e-16)
(1.08447 0.221653 2.05859e-16)
(1.10473 0.22679 7.97643e-19)
(1.12546 0.229879 -1.02175e-16)
(1.14681 0.230701 -7.87257e-19)
(1.16827 0.229108 -1.00255e-16)
(1.18938 0.225017 1.50525e-16)
(1.20972 0.218401 -3.88638e-19)
(1.22893 0.209303 -4.92311e-17)
(1.24611 0.197992 -2.47653e-17)
(1.06954 0.204591 2.07227e-16)
(1.08799 0.210421 -1.02793e-16)
(1.10651 0.214479 1.02016e-16)
(1.12541 0.216765 1.00553e-16)
(1.14483 0.217114 1.02346e-16)
(1.16438 0.215414 9.95055e-17)
(1.1837 0.211597 -4.9946e-17)
(1.20243 0.205632 -3.88966e-19)
(1.22033 0.197542 3.87722e-19)
(1.23652 0.187546 2.47931e-17)
(1.07357 0.194917 -1.03823e-16)
(1.09056 0.199746 -1.02255e-16)
(1.10756 0.202961 -1.01933e-16)
(1.12485 0.204617 -1.01307e-16)
(1.14259 0.204595 -9.99853e-17)
(1.16044 0.202812 9.87558e-17)
(1.17813 0.199218 -4.91961e-17)
(1.19538 0.193784 0)
(1.212 0.186522 9.94383e-17)
(1.22719 0.177614 0)
(1.07661 0.185555 0)
(1.09229 0.189573 1.02521e-16)
(1.10794 0.192129 -1.01849e-16)
(1.12382 0.193302 7.91155e-19)
(1.14008 0.193005 -1.02348e-16)
(1.15644 0.191178 -1.00358e-16)
(1.17268 0.187783 5.07891e-17)
(1.18858 0.182797 -4.9872e-17)
(1.20401 0.176227 -9.9539e-17)
(1.21822 0.16823 0)
(1.07879 0.176517 -1.0303e-16)
(1.09327 0.179875 0)
(1.10772 0.181915 1.01766e-16)
(1.12237 0.182723 1.02022e-16)
(1.13733 0.182233 5.9155e-23)
(1.15238 0.180399 9.96075e-17)
(1.16734 0.177195 0)
(1.18202 0.1726 4.99138e-17)
(1.19634 0.166622 5.00144e-17)
(1.20962 0.159395 -2.50721e-17)
(1.08023 0.167813 1.02838e-16)
(1.09362 0.170632 -1.0225e-16)
(1.10699 0.172269 1.01682e-16)
(1.12055 0.172803 -1.00402e-16)
(1.13436 0.172185 1.99977e-16)
(1.14826 0.170379 -9.88568e-17)
(1.16208 0.167364 -7.82344e-19)
(1.17568 0.163122 -3.90277e-19)
(1.18899 0.157659 -4.9481e-17)
(1.20141 0.151095 2.49059e-17)
(1.08102 0.15945 0)
(1.09344 0.161829 1.02116e-16)
(1.10584 0.163148 -1.01599e-16)
(1.11841 0.163481 -7.90265e-19)
(1.13122 0.162787 -9.92022e-17)
(1.1441 0.161035 -7.84852e-19)
(1.15691 0.158209 -7.82815e-19)
(1.16954 0.154291 7.81224e-19)
(1.18195 0.149286 4.9921e-17)
(1.19357 0.143302 2.49343e-17)
(1.08126 0.151429 1.02853e-16)
(1.09279 0.153447 -3.98367e-19)
(1.10432 0.154518 0)
(1.11603 0.154705 0)
(1.12794 0.153974 7.8732e-19)
(1.13991 0.152297 -5.18174e-17)
(1.15184 0.14966 1.13033e-23)
(1.16361 0.146043 5.04311e-17)
(1.1752 0.141451 3.90407e-19)
(1.18609 0.135981 -2.49625e-17)
(1.08104 0.143746 -1.02262e-16)
(1.09177 0.145469 -1.01847e-16)
(1.10252 0.146347 -1.01433e-16)
(1.11345 0.146432 -7.89671e-19)
(1.12455 0.145692 1.12488e-23)
(1.13572 0.144105 5.02642e-17)
(1.14686 0.141654 7.83793e-19)
(1.15786 0.138321 1.17967e-22)
(1.16872 0.134105 0)
(1.17895 0.129097 0)
(1.08043 0.136395 -1.0247e-16)
(1.09044 0.137879 2.03823e-16)
(1.10049 0.138607 1.0135e-16)
(1.11071 0.138622 0)
(1.1211 0.137896 -9.99921e-17)
(1.13155 0.136408 4.94957e-17)
(1.14198 0.13414 0)
(1.1523 0.131072 -5.05159e-17)
(1.16249 0.127203 -2.46455e-17)
(1.17213 0.122613 0)
(1.0795 0.129368 1.02279e-16)
(1.08887 0.130657 -1.01976e-16)
(1.09828 0.13127 0)
(1.10787 0.131241 1.00213e-16)
(1.11762 0.130545 1.0078e-16)
(1.12742 0.129161 -1.00597e-16)
(1.13722 0.12707 -4.94396e-17)
(1.14692 0.124253 0)
(1.15652 0.120703 2.50621e-17)
(1.16561 0.116495 0)
(1.07832 0.122655 1.01692e-16)
(1.0871 0.123787 0)
(1.09594 0.124312 0)
(1.10496 0.124259 -1.00176e-16)
(1.11412 0.123603 -9.27406e-24)
(1.12335 0.122325 4.8743e-17)
(1.13258 0.120406 5.10405e-17)
(1.14173 0.117823 -3.92255e-19)
(1.15079 0.11457 1.96e-19)
(1.15939 0.110711 1.95911e-19)
(1.07692 0.116245 -2.03006e-16)
(1.08517 0.117249 1.01312e-16)
(1.0935 0.11771 7.89852e-19)
(1.102 0.117646 -7.88489e-19)
(1.11065 0.117039 -5.03908e-17)
(1.11936 0.115867 0)
(1.12807 0.114111 0)
(1.13672 0.111748 5.02513e-17)
(1.14529 0.10877 0)
(1.15345 0.105233 0)
(1.07537 0.110126 1.01711e-16)
(1.08314 0.111027 -1.01575e-16)
(1.091 0.11144 7.89207e-19)
(1.09904 0.111378 -1.02464e-16)
(1.10721 0.110823 5.11785e-17)
(1.11545 0.109756 0)
(1.1237 0.108155 -7.86205e-19)
(1.13189 0.105998 -4.99007e-17)
(1.14003 0.103274 1.96399e-19)
(1.14779 0.100034 1.96358e-19)
(1.07369 0.104285 -1.01522e-16)
(1.08104 0.105104 3.94717e-19)
(1.08847 0.105482 -1.00936e-16)
(1.09609 0.10543 1.0085e-16)
(1.10383 0.10493 7.87361e-19)
(1.11164 0.103964 -7.86979e-19)
(1.11947 0.10251 4.95617e-17)
(1.12726 0.100545 7.86506e-19)
(1.13499 0.0980568 0)
(1.14239 0.0950899 0)
(1.07192 0.0987087 -3.94059e-19)
(1.07888 0.0994612 1.01309e-16)
(1.08594 0.0998163 1.00854e-16)
(1.09317 0.09978 -1.01599e-16)
(1.10053 0.0993359 5.1179e-17)
(1.10795 0.0984663 0)
(1.1154 0.0971504 -5.03794e-17)
(1.12281 0.0953641 -3.93581e-19)
(1.13018 0.0930944 3.93595e-19)
(1.13724 0.0903803 0)
(1.0701 0.0933848 3.93784e-19)
(1.07671 0.0940842 -1.01176e-16)
(1.08342 0.0944241 -1.00771e-16)
(1.0903 0.0944073 1.00773e-16)
(1.0973 0.0940186 -1.00784e-16)
(1.10438 0.0932412 0)
(1.11147 0.0920543 0)
(1.11855 0.090434 -3.93914e-19)
(1.12559 0.0883661 -2.50187e-17)
(1.13234 0.0858854 2.54172e-17)
(1.06824 0.0883004 1.00175e-16)
(1.07453 0.0889569 -1.00258e-16)
(1.08093 0.0892876 1.00689e-16)
(1.08749 0.0892927 -5.11542e-17)
(1.09418 0.0889582 7.87387e-19)
(1.10093 0.0882677 0)
(1.10771 0.087201 -5.04416e-17)
(1.11447 0.0857344 -3.94247e-19)
(1.12121 0.0838531 2.56359e-17)
(1.12768 0.0815878 -2.5249e-17)
(1.06637 0.0834425 0)
(1.07237 0.0840645 1.00519e-16)
(1.07849 0.0843904 -1.00606e-16)
(1.08476 0.0844185 5.11347e-17)
(1.09115 0.0841359 4.96048e-17)
(1.09761 0.083527 0)
(1.1041 0.0825719 4.96841e-17)
(1.11058 0.0812473 3.94587e-19)
(1.11704 0.0795382 1.97403e-19)
(1.12326 0.0774716 1.97485e-19)
(1.06451 0.0787989 3.91394e-19)
(1.07025 0.0793925 -3.92141e-19)
(1.0761 0.0797167 1.00524e-16)
(1.08211 0.0797681 7.86384e-19)
(1.08823 0.0795346 -5.03923e-17)
(1.09442 0.0790016 4.96629e-17)
(1.10065 0.0781497 -4.97148e-17)
(1.10687 0.0769562 2.40899e-17)
(1.11308 0.0754058 5.92808e-19)
(1.11907 0.0735224 -1.97712e-19)
(1.06267 0.0743573 9.96222e-17)
(1.06817 0.0749275 3.91629e-19)
(1.07379 0.0752517 0)
(1.07956 0.0753257 0)
(1.08543 0.0751384 7.78574e-24)
(1.09138 0.0746757 -5.04681e-17)
(1.09736 0.0739189 1.0028e-16)
(1.10335 0.0728459 3.95274e-19)
(1.10932 0.0714416 1.97807e-19)
(1.11509 0.0697271 1.2866e-17)
(1.06086 0.070106 -9.94393e-17)
(1.06615 0.0706562 -3.91118e-19)
(1.07155 0.0709815 -5.01797e-17)
(1.07709 0.071077 0)
(1.08275 0.0709324 5.03925e-17)
(1.08847 0.0705344 0)
(1.09423 0.0698649 -4.97761e-17)
(1.1 0.0689027 -2.65042e-17)
(1.10575 0.0676327 3.96017e-19)
(1.11133 0.0660736 1.53271e-23)
(1.0591 0.0660335 -1.00035e-16)
(1.06419 0.0665662 3.90608e-19)
(1.06939 0.066893 5.01387e-17)
(1.07473 0.0670083 -7.8548e-19)
(1.08018 0.0669028 7.87386e-19)
(1.0857 0.066564 0)
(1.09126 0.0659745 -7.90582e-19)
(1.09682 0.0651138 3.95924e-19)
(1.10238 0.0639671 1.98213e-19)
(1.10778 0.062551 -1.24988e-17)
(1.05739 0.062129 9.90747e-17)
(1.0623 0.0626457 3.90098e-19)
(1.06732 0.0629736 -7.82772e-19)
(1.07248 0.0631069 1.57036e-18)
(1.07774 0.0630369 -7.87386e-19)
(1.08307 0.0627518 0)
(1.08844 0.0622352 -2.53143e-17)
(1.09382 0.0614673 0)
(1.0992 0.0604337 0)
(1.10443 0.0591492 1.27119e-17)
(1.05574 0.0583817 4.96404e-17)
(1.06048 0.0588834 0)
(1.06534 0.0592117 0)
(1.07033 0.0593607 -7.84876e-19)
(1.07542 0.0593225 -4.96052e-17)
(1.08057 0.059086 0)
(1.08577 0.0586356 2.61215e-17)
(1.09099 0.0579523 -1.18978e-18)
(1.0962 0.0570223 3.97237e-19)
(1.10128 0.0558587 -1.27265e-17)
(1.05416 0.0547816 -9.94863e-17)
(1.05875 0.0552686 3.89083e-19)
(1.06345 0.0555962 7.8149e-19)
(1.06829 0.0557586 -5.1782e-17)
(1.07322 0.0557485 1.0236e-16)
(1.07821 0.0555556 -7.89885e-19)
(1.08326 0.055165 2.53456e-17)
(1.08832 0.0545588 -3.96927e-19)
(1.09337 0.0537236 1.98824e-19)
(1.09831 0.0526709 1.99082e-19)
(1.05265 0.0513188 4.90726e-17)
(1.0571 0.051791 3.88576e-19)
(1.06166 0.0521166 0)
(1.06635 0.05229 4.94092e-17)
(1.07114 0.0523044 -4.96051e-17)
(1.07599 0.0521504 2.52847e-17)
(1.08089 0.0518137 6.28527e-24)
(1.0858 0.0512774 -3.97265e-19)
(1.09072 0.0505287 3.98055e-19)
(1.09553 0.049578 0)
(1.05121 0.0479839 -3.85692e-19)
(1.05553 0.048441 3.88071e-19)
(1.05997 0.0487631 0)
(1.06453 0.0489449 -5.01741e-17)
(1.06918 0.0489804 7.87378e-19)
(1.0739 0.0488606 -5.13766e-17)
(1.07866 0.0485722 -2.53768e-17)
(1.08345 0.0480993 -2.58442e-17)
(1.08824 0.0474296 1.99233e-19)
(1.09293 0.0465723 1.99543e-19)
(1.04984 0.0447681 -4.96636e-17)
(1.05405 0.0452092 4.99959e-17)
(1.05837 0.0455262 0)
(1.06281 0.045714 5.09384e-17)
(1.06734 0.0457671 -7.87381e-19)
(1.07194 0.0456773 2.53015e-17)
(1.07658 0.045432 0)
(1.08124 0.0450164 2.50703e-17)
(1.08591 0.0444186 5.98312e-19)
(1.09049 0.0436471 -1.99774e-19)
(1.04855 0.0416626 4.88045e-17)
(1.05265 0.0420869 3.87032e-19)
(1.05687 0.0423971 7.7893e-19)
(1.0612 0.0425884 -7.83365e-19)
(1.06562 0.0426559 0)
(1.0701 0.042592 2.53099e-17)
(1.07464 0.042385 -2.62022e-17)
(1.07919 0.0420209 2.58882e-17)
(1.08375 0.0414887 1.99645e-19)
(1.08823 0.0407958 1.30004e-17)
(1.04734 0.0386593 -4.90992e-17)
(1.05135 0.0390657 -4.94796e-17)
(1.05546 0.0393673 0)
(1.05969 0.0395597 0)
(1.06401 0.0396386 0)
(1.06839 0.0395968 -5.06366e-17)
(1.07282 0.0394236 7.9449e-19)
(1.07728 0.0391059 -2.67074e-17)
(1.08173 0.0386333 3.99699e-19)
(1.08612 0.0380125 -1.28152e-17)
(1.04621 0.0357502 -3.82856e-19)
(1.05013 0.0361376 3.86058e-19)
(1.05416 0.0364289 -7.77653e-19)
(1.05829 0.0366202 7.82757e-19)
(1.06252 0.0367075 7.87368e-19)
(1.06681 0.0366843 -7.91462e-19)
(1.07114 0.0365407 2.46446e-17)
(1.0755 0.0362645 3.98961e-19)
(1.07987 0.0358461 4.00112e-19)
(1.08417 0.0352914 0)
(1.04516 0.0329277 4.85387e-17)
(1.049 0.033295 3.85558e-19)
(1.05294 0.0335742 2.48645e-17)
(1.057 0.0337621 7.82448e-19)
(1.06114 0.0338551 -3.8063e-24)
(1.06534 0.0338473 -7.91724e-19)
(1.06959 0.0337295 0)
(1.07387 0.0334905 0)
(1.07815 0.0331212 1.28168e-17)
(1.08237 0.0326272 0)
(1.04418 0.0301846 3.81499e-19)
(1.04795 0.0305304 -3.85058e-19)
(1.05182 0.0307961 -2.56205e-17)
(1.0558 0.0309785 3.65869e-24)
(1.05987 0.0310747 7.87364e-19)
(1.06399 0.0310792 2.53435e-17)
(1.06817 0.0309837 2.5471e-17)
(1.07236 0.0307778 -3.99637e-19)
(1.07657 0.0304533 -1.24291e-17)
(1.08072 0.0300149 0)
(1.04329 0.0275138 -3.80807e-19)
(1.04699 0.027837 3.84559e-19)
(1.0508 0.0280875 -2.48237e-17)
(1.05471 0.0282625 0)
(1.0587 0.0283595 0)
(1.06276 0.0283736 0)
(1.06686 0.0282972 -2.54867e-17)
(1.07099 0.0281208 -1.31993e-17)
(1.07512 0.0278369 4.01356e-19)
(1.07921 0.0274497 0)
(1.04247 0.0249087 -3.80117e-19)
(1.04612 0.0252081 3.84061e-19)
(1.04987 0.0254418 2.40283e-17)
(1.05371 0.0256077 3.49731e-24)
(1.05764 0.0257034 7.87354e-19)
(1.06164 0.0257245 0)
(1.06568 0.0256643 7.96949e-19)
(1.06974 0.0255141 1.16093e-17)
(1.07381 0.0252671 -1.24549e-17)
(1.07784 0.0249271 0)
(1.04173 0.0223627 0)
(1.04532 0.0226371 2.4548e-17)
(1.04902 0.0228528 2.4783e-17)
(1.05282 0.0230078 -7.81227e-19)
(1.05669 0.0231002 7.87349e-19)
(1.06063 0.0231262 0)
(1.06461 0.0230795 1.35565e-17)
(1.06862 0.0229527 -1.20199e-18)
(1.07263 0.0227393 1.30711e-17)
(1.07661 0.0224427 2.01643e-19)
(1.04107 0.0198695 -3.78743e-19)
(1.04462 0.0201179 -2.41332e-17)
(1.04827 0.0203142 -2.39888e-17)
(1.05201 0.0204569 -3.36799e-24)
(1.05584 0.0205443 -7.87343e-19)
(1.05973 0.0205731 0)
(1.06366 0.0205378 -1.35649e-17)
(1.06761 0.0204315 4.01008e-19)
(1.07158 0.0202488 6.0391e-19)
(1.07551 0.0199925 -2.01879e-19)
(1.04048 0.0174232 3.78059e-19)
(1.04399 0.0176445 -3.82573e-19)
(1.0476 0.0178203 0)
(1.05131 0.0179493 0)
(1.05509 0.0180302 0)
(1.05893 0.01806 -1.26927e-17)
(1.06282 0.0180339 -1.27749e-17)
(1.06673 0.017946 -4.01347e-19)
(1.07065 0.0177914 2.01514e-19)
(1.07453 0.0175725 2.02115e-19)
(1.03997 0.0150177 -3.77377e-19)
(1.04345 0.0152111 3.82078e-19)
(1.04702 0.0153654 1.31335e-17)
(1.05069 0.0154796 -1.32653e-17)
(1.05444 0.0155525 0)
(1.05824 0.0155818 2.53937e-17)
(1.06209 0.0155632 1.27827e-17)
(1.06596 0.0154916 6.02537e-18)
(1.06984 0.0153627 -6.25339e-18)
(1.07369 0.0151787 2.02352e-19)
(1.03954 0.0126475 -1.2431e-17)
(1.04299 0.0128121 1.25923e-17)
(1.04653 0.0129439 -1.23508e-17)
(1.05017 0.0130423 2.41801e-17)
(1.05388 0.0131062 7.87322e-19)
(1.05765 0.0131336 -2.5402e-17)
(1.06147 0.013121 6.39532e-18)
(1.0653 0.0130639 -6.83459e-18)
(1.06915 0.0129588 6.8657e-18)
(1.07297 0.0128073 0)
(1.03918 0.0103068 1.24086e-17)
(1.0426 0.0104419 -3.81094e-19)
(1.04612 0.0105507 -7.71291e-19)
(1.04974 0.0106324 -1.16954e-17)
(1.05342 0.0106864 0)
(1.05716 0.0107108 1.27052e-17)
(1.06095 0.0107027 -7.19918e-18)
(1.06476 0.0106587 -5.23093e-18)
(1.06857 0.0105756 -6.06429e-19)
(1.07237 0.0104548 2.02828e-19)
(1.03889 0.00799028 -1.2011e-17)
(1.0423 0.00809549 -1.52911e-24)
(1.0458 0.00818054 7.70657e-19)
(1.04939 0.00824497 -1.55877e-18)
(1.05306 0.0082881 1.57461e-18)
(1.05678 0.00830853 -7.14901e-18)
(1.06054 0.00830399 5.60282e-18)
(1.06433 0.00827163 3.62452e-18)
(1.06812 0.00820909 3.84473e-18)
(1.07189 0.00811736 -2.03066e-19)
(1.03867 0.00569257 1.16147e-17)
(1.04207 0.00576739 -1.17834e-17)
(1.04556 0.0058283 0)
(1.04914 0.00587484 0)
(1.05278 0.00590646 7.87295e-19)
(1.05649 0.00592211 5.56216e-18)
(1.06023 0.00592009 -6.40718e-18)
(1.064 0.00589835 2.82149e-18)
(1.06778 0.00585517 -3.03848e-18)
(1.07153 0.00579119 2.03305e-19)
(1.03853 0.00340831 3.73994e-19)
(1.04192 0.00345235 -3.79621e-19)
(1.0454 0.00348861 3.07757e-18)
(1.04897 0.00351668 -7.7877e-19)
(1.0526 0.00353614 3.14915e-18)
(1.0563 0.00354627 -2.38456e-18)
(1.06003 0.00354601 0)
(1.06379 0.00353409 -4.03414e-19)
(1.06755 0.00350943 4.05555e-19)
(1.07129 0.00347232 -8.14178e-19)
(1.03846 0.00113358 -3.74353e-19)
(1.04184 0.0011474 3.80211e-19)
(1.04532 0.00115907 -3.85505e-18)
(1.04888 0.00116833 7.80804e-19)
(1.05251 0.001175 -1.5794e-18)
(1.0562 0.0011788 1.59522e-18)
(1.05993 0.00117933 0)
(1.06368 0.00117611 -4.0507e-19)
(1.06743 0.00116876 2.03656e-19)
(1.07117 0.0011573 1.02229e-18)
(1.03073 0.00773703 0)
(1.00386 0.0152423 0)
(0.998111 0.0225376 0)
(0.999737 0.0307087 0)
(0.999562 0.038919 0)
(0.998474 0.0472991 0)
(0.997402 0.0560632 0)
(0.996347 0.0652889 0)
(0.995267 0.075051 0)
(0.994217 0.0854476 0)
(0.993273 0.0965836 0)
(0.992524 0.108567 0)
(0.99208 0.121511 0)
(0.992075 0.135527 0)
(0.992679 0.150721 0)
(0.9941 0.167178 0)
(0.996592 0.184934 0)
(1.00052 0.203916 0)
(1.00639 0.223792 0)
(1.01398 0.24326 0)
(1.03388 0.00748554 0)
(1.00382 0.0156712 0)
(0.998365 0.0230366 0)
(1.00049 0.0311754 0)
(1.00049 0.0394604 0)
(0.99967 0.0479148 0)
(0.998975 0.0567115 0)
(0.99835 0.0659308 0)
(0.99776 0.0756433 0)
(0.997269 0.0859348 0)
(0.99696 0.0968961 0)
(0.996923 0.108619 0)
(0.997271 0.121196 0)
(0.998143 0.134714 0)
(0.99971 0.14925 0)
(1.00218 0.164853 0)
(1.0058 0.181509 0)
(1.01094 0.199052 0)
(1.01796 0.216925 0)
(1.02618 0.233575 0)
(1.037 0.00727084 0)
(1.00403 0.015978 0)
(0.998479 0.0233812 0)
(1.00109 0.0314528 0)
(1.00133 0.0397708 0)
(1.00078 0.0482572 0)
(1.00044 0.0570413 0)
(1.00022 0.0662065 0)
(1.00009 0.0758192 0)
(1.00011 0.0859531 0)
(1.00038 0.0966846 0)
(1.00098 0.108089 0)
(1.00203 0.120239 0)
(1.00366 0.133199 0)
(1.00603 0.147017 0)
(1.00935 0.161709 0)
(1.01383 0.177221 0)
(1.01977 0.193342 0)
(1.02749 0.209465 0)
(1.03634 0.224141 0)
(1.04011 0.00717948 0)
(1.00433 0.0160886 0)
(0.998541 0.0235301 0)
(1.00161 0.031577 0)
(1.00211 0.0398991 0)
(1.00181 0.0483762 0)
(1.00179 0.0571138 0)
(1.00195 0.0661928 0)
(1.00224 0.0756734 0)
(1.00274 0.0856181 0)
(1.00353 0.0960908 0)
(1.0047 0.107152 0)
(1.00635 0.118858 0)
(1.00863 0.131252 0)
(1.01168 0.144362 0)
(1.01567 0.158177 0)
(1.02081 0.172623 0)
(1.02733 0.187477 0)
(1.03548 0.202163 0)
(1.04476 0.215302 0)
(1.04322 0.00712184 0)
(1.00468 0.0160799 0)
(0.998585 0.0235294 0)
(1.00208 0.0315445 0)
(1.00283 0.0398323 0)
(1.00276 0.0482576 0)
(1.00304 0.0569109 0)
(1.00354 0.0658672 0)
(1.00421 0.0751787 0)
(1.00513 0.0848984 0)
(1.00639 0.0950783 0)
(1.00805 0.105766 0)
(1.01024 0.117003 0)
(1.01306 0.128818 0)
(1.01666 0.141218 0)
(1.0212 0.154179 0)
(1.02683 0.167613 0)