/*--------------------------------*- C++ -*----------------------------------*\
  =========                 |
  \\      /  F ield         | OpenFOAM: The Open Source CFD Toolbox
   \\    /   O peration     | Website:  https://openfoam.org
    \\  /    A nd           | Version:  6
     \\/     M anipulation  |
\*---------------------------------------------------------------------------*/
FoamFile
{
    version     2.0;
    format      ascii;
    class       volScalarField;
    location    "0.35";
    object      p;
}
// * * * * * * * * * * * * * * * * * * * * * * * * * * * * * * * * * * * * * //

dimensions      [0 2 -2 0 0 0 0];

internalField   nonuniform List<scalar> 
5600
(
999.835
999.87
999.906
999.909
999.907
999.908
999.911
999.915
999.92
999.925
999.931
999.937
999.945
999.954
999.963
999.974
999.986
999.999
1000.01
1000.03
999.83
999.869
999.905
999.907
999.905
999.907
999.91
999.914
999.918
999.923
999.929
999.936
999.944
999.952
999.962
999.973
999.985
999.998
1000.01
1000.03
999.824
999.866
999.903
999.905
999.903
999.904
999.907
999.911
999.915
999.92
999.926
999.933
999.94
999.949
999.958
999.968
999.98
999.992
1000.01
1000.02
999.816
999.86
999.899
999.901
999.899
999.9
999.903
999.907
999.911
999.916
999.921
999.927
999.934
999.942
999.951
999.96
999.971
999.982
999.995
1000.01
999.806
999.854
999.895
999.896
999.893
999.895
999.898
999.901
999.905
999.909
999.914
999.92
999.926
999.933
999.941
999.95
999.959
999.968
999.979
999.989
999.793
999.845
999.889
999.89
999.887
999.888
999.891
999.894
999.897
999.901
999.906
999.911
999.916
999.922
999.929
999.936
999.943
999.951
999.959
999.966
999.779
999.836
999.883
999.884
999.88
999.881
999.883
999.886
999.889
999.892
999.896
999.9
999.905
999.909
999.915
999.92
999.925
999.93
999.935
999.939
999.762
999.826
999.876
999.876
999.871
999.872
999.874
999.877
999.879
999.882
999.885
999.888
999.891
999.895
999.898
999.902
999.905
999.907
999.909
999.909
999.744
999.816
999.869
999.868
999.863
999.863
999.865
999.867
999.869
999.871
999.873
999.875
999.878
999.88
999.882
999.883
999.884
999.883
999.882
999.878
999.721
999.807
999.862
999.859
999.853
999.854
999.855
999.856
999.858
999.859
999.861
999.862
999.863
999.864
999.864
999.864
999.862
999.859
999.854
999.847
1000.05
1000.08
1000.11
1000.15
1000.19
1000.24
1000.3
1000.36
1000.43
1000.59
1000.05
1000.08
1000.11
1000.15
1000.19
1000.23
1000.29
1000.35
1000.41
1000.57
1000.04
1000.07
1000.1
1000.13
1000.17
1000.22
1000.27
1000.32
1000.38
1000.54
1000.02
1000.05
1000.08
1000.11
1000.15
1000.19
1000.23
1000.28
1000.33
1000.48
1000
1000.02
1000.05
1000.08
1000.11
1000.15
1000.19
1000.23
1000.27
1000.41
999.972
999.99
1000.01
1000.04
1000.07
1000.1
1000.13
1000.17
1000.2
1000.33
999.94
999.953
999.974
999.996
1000.02
1000.04
1000.07
1000.09
1000.12
1000.23
999.904
999.914
999.931
999.948
999.966
999.983
1000
1000.02
1000.03
1000.13
999.865
999.872
999.886
999.898
999.91
999.921
999.931
999.939
999.946
1000.01
999.825
999.83
999.841
999.848
999.854
999.858
999.859
999.857
999.851
999.897
999.793
999.8
999.804
999.804
999.801
999.792
999.776
999.752
999.727
999.762
999.756
999.759
999.757
999.752
999.741
999.724
999.697
999.662
999.627
999.641
999.717
999.715
999.708
999.696
999.679
999.654
999.62
999.578
999.535
999.528
999.675
999.669
999.657
999.639
999.616
999.584
999.543
999.494
999.445
999.419
999.633
999.622
999.605
999.582
999.553
999.515
999.468
999.414
999.36
999.318
999.59
999.576
999.554
999.527
999.493
999.45
999.398
999.34
999.283
999.225
999.549
999.53
999.505
999.474
999.436
999.389
999.335
999.274
999.215
999.144
999.509
999.487
999.459
999.425
999.384
999.335
999.279
999.217
999.157
999.074
999.472
999.448
999.417
999.381
999.339
999.289
999.232
999.171
999.11
999.017
999.439
999.412
999.381
999.343
999.3
999.25
999.193
999.132
999.071
998.97
999.788
999.75
999.712
999.673
999.633
999.594
999.556
999.52
999.487
999.457
999.775
999.74
999.703
999.668
999.631
999.595
999.561
999.528
999.497
999.47
999.76
999.727
999.693
999.661
999.628
999.595
999.564
999.534
999.507
999.481
999.747
999.716
999.685
999.655
999.625
999.596
999.567
999.54
999.515
999.491
999.735
999.706
999.678
999.65
999.623
999.596
999.57
999.546
999.522
999.5
999.725
999.698
999.671
999.646
999.621
999.597
999.573
999.55
999.529
999.509
999.715
999.69
999.666
999.643
999.62
999.597
999.575
999.555
999.535
999.516
999.707
999.684
999.661
999.64
999.619
999.598
999.578
999.558
999.54
999.522
999.699
999.678
999.657
999.637
999.618
999.598
999.58
999.562
999.545
999.528
999.692
999.673
999.653
999.635
999.617
999.599
999.582
999.565
999.549
999.533
999.686
999.668
999.65
999.633
999.616
999.599
999.583
999.568
999.553
999.538
999.681
999.664
999.647
999.631
999.615
999.6
999.585
999.57
999.556
999.542
999.676
999.66
999.645
999.63
999.615
999.6
999.586
999.572
999.559
999.546
999.671
999.656
999.642
999.628
999.614
999.601
999.587
999.574
999.562
999.55
999.667
999.653
999.64
999.627
999.614
999.601
999.589
999.576
999.565
999.553
999.664
999.651
999.638
999.626
999.613
999.601
999.59
999.578
999.567
999.556
999.66
999.648
999.636
999.625
999.613
999.602
999.591
999.58
999.569
999.559
999.657
999.646
999.635
999.624
999.613
999.602
999.591
999.581
999.571
999.561
999.654
999.644
999.633
999.623
999.612
999.602
999.592
999.582
999.573
999.563
999.652
999.642
999.632
999.622
999.612
999.602
999.593
999.583
999.574
999.565
999.65
999.64
999.631
999.621
999.612
999.603
999.593
999.585
999.576
999.567
999.647
999.638
999.629
999.62
999.612
999.603
999.594
999.586
999.577
999.569
999.645
999.637
999.628
999.62
999.611
999.603
999.595
999.586
999.578
999.57
999.643
999.635
999.627
999.619
999.611
999.603
999.595
999.587
999.58
999.572
999.642
999.634
999.626
999.619
999.611
999.603
999.595
999.588
999.581
999.573
999.64
999.633
999.625
999.618
999.611
999.603
999.596
999.589
999.582
999.574
999.639
999.632
999.625
999.617
999.61
999.603
999.596
999.589
999.582
999.576
999.637
999.63
999.624
999.617
999.61
999.603
999.596
999.59
999.583
999.577
999.636
999.629
999.623
999.616
999.61
999.603
999.597
999.59
999.584
999.577
999.635
999.629
999.622
999.616
999.61
999.603
999.597
999.591
999.584
999.578
999.634
999.628
999.622
999.616
999.609
999.603
999.597
999.591
999.585
999.579
999.633
999.627
999.621
999.615
999.609
999.603
999.597
999.591
999.586
999.58
999.632
999.626
999.621
999.615
999.609
999.603
999.598
999.592
999.586
999.58
999.631
999.625
999.62
999.614
999.609
999.603
999.598
999.592
999.587
999.581
999.63
999.625
999.619
999.614
999.609
999.603
999.598
999.592
999.587
999.582
999.629
999.624
999.619
999.614
999.609
999.603
999.598
999.593
999.587
999.582
999.629
999.624
999.619
999.614
999.608
999.603
999.598
999.593
999.588
999.582
999.628
999.623
999.618
999.613
999.608
999.603
999.598
999.593
999.588
999.583
999.627
999.623
999.618
999.613
999.608
999.603
999.598
999.593
999.588
999.583
999.627
999.622
999.618
999.613
999.608
999.603
999.598
999.593
999.588
999.583
999.626
999.622
999.617
999.613
999.608
999.603
999.598
999.593
999.589
999.584
999.626
999.621
999.617
999.612
999.608
999.603
999.598
999.593
999.589
999.584
999.626
999.621
999.617
999.612
999.608
999.603
999.598
999.594
999.589
999.584
999.625
999.621
999.617
999.612
999.608
999.603
999.598
999.594
999.589
999.584
999.625
999.621
999.616
999.612
999.607
999.603
999.598
999.594
999.589
999.585
999.625
999.62
999.616
999.612
999.607
999.603
999.598
999.594
999.589
999.585
999.624
999.62
999.616
999.612
999.607
999.603
999.598
999.594
999.589
999.585
999.624
999.62
999.616
999.612
999.607
999.603
999.598
999.594
999.589
999.585
999.624
999.62
999.616
999.612
999.607
999.603
999.598
999.594
999.589
999.585
999.624
999.62
999.616
999.612
999.607
999.603
999.598
999.594
999.589
999.585
999.689
999.805
999.857
999.848
999.843
999.844
999.844
999.845
999.845
999.845
999.845
999.845
999.845
999.843
999.841
999.838
999.833
999.827
999.817
999.801
999.67
999.8
999.852
999.841
999.835
999.836
999.837
999.836
999.836
999.836
999.835
999.835
999.833
999.831
999.828
999.824
999.818
999.81
999.8
999.785
999.653
999.793
999.846
999.834
999.828
999.829
999.829
999.829
999.828
999.827
999.826
999.825
999.823
999.82
999.816
999.811
999.805
999.797
999.786
999.773
999.638
999.784
999.839
999.827
999.821
999.821
999.821
999.821
999.82
999.818
999.817
999.815
999.812
999.809
999.805
999.799
999.793
999.784
999.774
999.76
999.623
999.776
999.833
999.82
999.814
999.814
999.814
999.813
999.811
999.81
999.808
999.805
999.802
999.799
999.794
999.788
999.781
999.772
999.762
999.749
999.609
999.768
999.827
999.813
999.806
999.807
999.806
999.805
999.803
999.801
999.799
999.796
999.793
999.789
999.784
999.778
999.77
999.761
999.751
999.738
999.595
999.759
999.821
999.806
999.799
999.8
999.799
999.797
999.795
999.793
999.791
999.788
999.784
999.779
999.774
999.768
999.76
999.751
999.741
999.729
999.58
999.751
999.815
999.799
999.792
999.792
999.792
999.79
999.788
999.785
999.783
999.779
999.775
999.771
999.765
999.759
999.751
999.742
999.732
999.721
999.566
999.743
999.809
999.793
999.786
999.786
999.785
999.783
999.78
999.778
999.775
999.771
999.767
999.762
999.757
999.75
999.743
999.734
999.724
999.713
999.553
999.735
999.803
999.786
999.779
999.779
999.778
999.776
999.773
999.771
999.767
999.764
999.759
999.754
999.749
999.742
999.735
999.726
999.717
999.706
999.539
999.727
999.797
999.78
999.772
999.772
999.771
999.769
999.766
999.764
999.76
999.756
999.752
999.747
999.741
999.735
999.727
999.719
999.71
999.7
999.526
999.72
999.792
999.774
999.766
999.766
999.765
999.762
999.76
999.757
999.753
999.75
999.745
999.74
999.734
999.728
999.721
999.713
999.704
999.694
999.514
999.713
999.786
999.768
999.76
999.76
999.758
999.756
999.753
999.75
999.747
999.743
999.738
999.733
999.728
999.721
999.714
999.706
999.698
999.688
999.501
999.705
999.781
999.762
999.754
999.754
999.752
999.75
999.747
999.744
999.741
999.737
999.732
999.727
999.722
999.715
999.708
999.701
999.693
999.684
999.489
999.698
999.776
999.757
999.748
999.748
999.747
999.744
999.741
999.738
999.735
999.731
999.726
999.721
999.716
999.71
999.703
999.696
999.688
999.679
999.478
999.692
999.771
999.751
999.742
999.742
999.741
999.739
999.736
999.733
999.729
999.725
999.721
999.716
999.711
999.705
999.698
999.691
999.683
999.675
999.467
999.685
999.766
999.746
999.737
999.737
999.736
999.733
999.73
999.727
999.724
999.72
999.716
999.711
999.706
999.7
999.693
999.686
999.679
999.671
999.456
999.679
999.762
999.741
999.732
999.732
999.731
999.728
999.725
999.722
999.719
999.715
999.711
999.706
999.701
999.695
999.689
999.682
999.675
999.668
999.445
999.673
999.757
999.736
999.727
999.727
999.726
999.723
999.721
999.717
999.714
999.71
999.706
999.701
999.696
999.691
999.685
999.679
999.672
999.664
999.435
999.667
999.753
999.732
999.722
999.722
999.721
999.719
999.716
999.713
999.71
999.706
999.702
999.697
999.692
999.687
999.681
999.675
999.668
999.661
999.426
999.662
999.749
999.727
999.718
999.718
999.717
999.714
999.711
999.709
999.705
999.702
999.698
999.693
999.688
999.683
999.678
999.672
999.665
999.659
999.417
999.657
999.745
999.723
999.713
999.714
999.712
999.71
999.707
999.704
999.701
999.698
999.694
999.689
999.685
999.68
999.674
999.669
999.662
999.656
999.408
999.651
999.742
999.719
999.709
999.71
999.708
999.706
999.703
999.7
999.697
999.694
999.69
999.686
999.681
999.676
999.671
999.666
999.66
999.654
999.4
999.647
999.738
999.715
999.705
999.706
999.705
999.702
999.7
999.697
999.694
999.69
999.686
999.682
999.678
999.673
999.668
999.663
999.657
999.651
999.392
999.642
999.735
999.712
999.702
999.702
999.701
999.699
999.696
999.693
999.69
999.687
999.683
999.679
999.675
999.67
999.666
999.66
999.655
999.649
999.384
999.638
999.732
999.708
999.698
999.698
999.697
999.695
999.693
999.69
999.687
999.684
999.68
999.676
999.672
999.668
999.663
999.658
999.653
999.647
999.377
999.634
999.729
999.705
999.695
999.695
999.694
999.692
999.689
999.687
999.684
999.681
999.677
999.674
999.67
999.665
999.661
999.656
999.651
999.646
999.37
999.63
999.726
999.702
999.692
999.692
999.691
999.689
999.686
999.684
999.681
999.678
999.675
999.671
999.667
999.663
999.658
999.654
999.649
999.644
999.364
999.626
999.723
999.699
999.689
999.689
999.688
999.686
999.684
999.681
999.678
999.675
999.672
999.668
999.665
999.661
999.656
999.652
999.647
999.642
999.358
999.622
999.72
999.696
999.686
999.686
999.685
999.683
999.681
999.678
999.676
999.673
999.67
999.666
999.663
999.659
999.654
999.65
999.646
999.641
999.352
999.619
999.718
999.694
999.683
999.684
999.683
999.681
999.678
999.676
999.673
999.67
999.667
999.664
999.66
999.657
999.653
999.648
999.644
999.64
999.347
999.616
999.716
999.691
999.68
999.681
999.68
999.678
999.676
999.674
999.671
999.668
999.665
999.662
999.659
999.655
999.651
999.647
999.643
999.638
999.342
999.613
999.714
999.689
999.678
999.679
999.678
999.676
999.674
999.672
999.669
999.666
999.663
999.66
999.657
999.653
999.649
999.645
999.641
999.637
999.337
999.61
999.712
999.687
999.676
999.677
999.676
999.674
999.672
999.67
999.667
999.664
999.662
999.658
999.655
999.652
999.648
999.644
999.64
999.636
999.333
999.608
999.71
999.685
999.674
999.675
999.674
999.672
999.67
999.668
999.665
999.663
999.66
999.657
999.654
999.65
999.647
999.643
999.639
999.635
999.329
999.606
999.708
999.683
999.672
999.673
999.672
999.67
999.668
999.666
999.664
999.661
999.658
999.655
999.652
999.649
999.645
999.642
999.638
999.634
999.325
999.603
999.706
999.681
999.67
999.671
999.67
999.668
999.666
999.664
999.662
999.66
999.657
999.654
999.651
999.648
999.644
999.641
999.637
999.633
999.321
999.601
999.705
999.68
999.669
999.669
999.669
999.667
999.665
999.663
999.661
999.658
999.656
999.653
999.65
999.647
999.643
999.64
999.636
999.632
999.318
999.6
999.704
999.678
999.667
999.668
999.667
999.666
999.664
999.662
999.659
999.657
999.654
999.652
999.649
999.646
999.642
999.639
999.635
999.632
999.315
999.598
999.702
999.677
999.666
999.667
999.666
999.664
999.662
999.66
999.658
999.656
999.653
999.651
999.648
999.645
999.641
999.638
999.635
999.631
999.313
999.596
999.701
999.676
999.665
999.665
999.665
999.663
999.661
999.659
999.657
999.655
999.652
999.65
999.647
999.644
999.641
999.637
999.634
999.63
999.31
999.595
999.7
999.674
999.663
999.664
999.664
999.662
999.66
999.658
999.656
999.654
999.651
999.649
999.646
999.643
999.64
999.637
999.633
999.63
999.308
999.594
999.699
999.674
999.662
999.663
999.663
999.661
999.659
999.657
999.655
999.653
999.651
999.648
999.645
999.642
999.639
999.636
999.633
999.629
999.306
999.593
999.699
999.673
999.662
999.663
999.662
999.66
999.659
999.657
999.655
999.652
999.65
999.647
999.645
999.642
999.639
999.636
999.632
999.629
999.305
999.592
999.698
999.672
999.661
999.662
999.661
999.66
999.658
999.656
999.654
999.652
999.649
999.647
999.644
999.641
999.638
999.635
999.632
999.629
999.304
999.591
999.697
999.671
999.66
999.661
999.661
999.659
999.657
999.655
999.653
999.651
999.649
999.646
999.644
999.641
999.638
999.635
999.632
999.628
999.303
999.59
999.697
999.671
999.66
999.661
999.66
999.659
999.657
999.655
999.653
999.651
999.648
999.646
999.643
999.641
999.638
999.635
999.631
999.628
999.303
999.59
999.697
999.671
999.66
999.661
999.66
999.658
999.657
999.655
999.653
999.651
999.648
999.646
999.643
999.64
999.637
999.634
999.631
999.628
999.305
999.588
999.696
999.671
999.659
999.66
999.66
999.658
999.656
999.655
999.653
999.65
999.648
999.646
999.643
999.64
999.637
999.634
999.631
999.628
999.314
999.581
999.695
999.672
999.659
999.66
999.66
999.658
999.656
999.654
999.652
999.65
999.648
999.645
999.643
999.64
999.637
999.634
999.631
999.628
999.299
999.264
999.231
999.202
999.172
999.14
999.106
999.07
999.034
998.967
999.304
999.269
999.236
999.208
999.178
999.147
999.115
999.081
999.046
998.987
999.301
999.27
999.24
999.214
999.186
999.157
999.126
999.094
999.062
999.009
999.298
999.271
999.243
999.218
999.192
999.165
999.136
999.106
999.076
999.032
999.296
999.272
999.246
999.223
999.198
999.172
999.145
999.117
999.09
999.055
999.295
999.274
999.25
999.228
999.204
999.179
999.153
999.127
999.103
999.075
999.295
999.276
999.254
999.232
999.209
999.185
999.16
999.136
999.114
999.093
999.296
999.278
999.257
999.236
999.214
999.19
999.166
999.143
999.123
999.107
999.297
999.28
999.261
999.24
999.218
999.194
999.171
999.148
999.129
999.117
999.299
999.282
999.263
999.242
999.22
999.197
999.173
999.151
999.132
999.122
999.312
999.323
999.335
999.347
999.359
999.371
999.382
999.394
999.405
999.417
999.427
999.438
999.448
999.458
999.468
999.477
999.485
999.494
999.502
999.509
999.516
999.523
999.529
999.535
999.54
999.546
999.55
999.555
999.559
999.563
999.567
999.57
999.574
999.577
999.58
999.583
999.586
999.589
999.592
999.595
999.598
999.602
999.605
999.609
999.613
999.617
999.621
999.626
999.632
999.637
999.307
999.318
999.331
999.343
999.355
999.367
999.379
999.39
999.402
999.413
999.424
999.435
999.445
999.455
999.465
999.474
999.483
999.491
999.499
999.507
999.514
999.521
999.527
999.533
999.539
999.544
999.549
999.553
999.558
999.562
999.566
999.569
999.573
999.576
999.579
999.582
999.585
999.588
999.591
999.594
999.598
999.601
999.604
999.608
999.612
999.616
999.62
999.625
999.63
999.635
999.3
999.311
999.324
999.337
999.349
999.361
999.373
999.385
999.397
999.408
999.42
999.43
999.441
999.451
999.461
999.47
999.479
999.488
999.496
999.504
999.511
999.518
999.524
999.53
999.536
999.542
999.547
999.551
999.556
999.56
999.564
999.567
999.571
999.574
999.577
999.58
999.584
999.587
999.59
999.593
999.596
999.599
999.602
999.606
999.61
999.614
999.618
999.622
999.628
999.633
999.291
999.302
999.316
999.33
999.343
999.355
999.367
999.379
999.391
999.403
999.414
999.425
999.436
999.446
999.456
999.466
999.475
999.483
999.492
999.5
999.507
999.514
999.521
999.527
999.533
999.538
999.543
999.548
999.553
999.557
999.561
999.565
999.568
999.572
999.575
999.578
999.581
999.584
999.587
999.59
999.593
999.597
999.6
999.603
999.607
999.611
999.615
999.619
999.624
999.629
999.283
999.292
999.308
999.322
999.335
999.348
999.361
999.373
999.385
999.397
999.408
999.419
999.43
999.441
999.451
999.46
999.47
999.478
999.487
999.495
999.502
999.51
999.516
999.523
999.529
999.534
999.54
999.545
999.549
999.554
999.558
999.562
999.565
999.569
999.572
999.575
999.578
999.581
999.584
999.587
999.59
999.594
999.597
999.6
999.603
999.607
999.611
999.615
999.619
999.624
999.274
999.283
999.3
999.315
999.329
999.342
999.354
999.367
999.379
999.391
999.402
999.414
999.424
999.435
999.445
999.455
999.464
999.473
999.482
999.49
999.498
999.505
999.512
999.518
999.524
999.53
999.536
999.541
999.545
999.55
999.554
999.558
999.562
999.565
999.569
999.572
999.575
999.578
999.581
999.584
999.587
999.59
999.593
999.596
999.599
999.602
999.606
999.61
999.614
999.618
999.267
999.274
999.293
999.309
999.323
999.336
999.349
999.361
999.374
999.385
999.397
999.408
999.419
999.43
999.44
999.449
999.459
999.468
999.476
999.485
999.492
999.5
999.507
999.513
999.52
999.526
999.531
999.536
999.541
999.546
999.55
999.554
999.558
999.561
999.565
999.568
999.571
999.574
999.577
999.58
999.583
999.586
999.588
999.591
999.594
999.597
999.601
999.604
999.608
999.611
999.262
999.269
999.289
999.305
999.319
999.332
999.345
999.357
999.369
999.381
999.392
999.404
999.414
999.425
999.435
999.445
999.454
999.463
999.471
999.48
999.488
999.495
999.502
999.509
999.515
999.521
999.527
999.532
999.537
999.541
999.546
999.55
999.554
999.557
999.561
999.564
999.567
999.57
999.573
999.576
999.578
999.581
999.584
999.586
999.589
999.592
999.595
999.598
999.601
999.604
999.259
999.267
999.288
999.304
999.317
999.33
999.343
999.355
999.367
999.378
999.389
999.4
999.411
999.421
999.431
999.44
999.449
999.458
999.467
999.475
999.483
999.49
999.497
999.504
999.51
999.516
999.522
999.527
999.532
999.537
999.541
999.545
999.549
999.553
999.556
999.559
999.562
999.565
999.568
999.571
999.573
999.576
999.578
999.581
999.583
999.586
999.588
999.591
999.594
999.596
999.261
999.274
999.294
999.309
999.322
999.334
999.346
999.357
999.368
999.379
999.389
999.399
999.409
999.419
999.429
999.438
999.447
999.455
999.463
999.471
999.479
999.486
999.493
999.5
999.506
999.512
999.517
999.522
999.527
999.532
999.536
999.54
999.544
999.548
999.551
999.554
999.557
999.56
999.563
999.566
999.568
999.571
999.573
999.575
999.577
999.58
999.582
999.584
999.586
999.588
999.308
999.304
999.307
999.316
999.326
999.336
999.347
999.357
999.368
999.378
999.388
999.398
999.408
999.418
999.427
999.436
999.445
999.453
999.462
999.47
999.477
999.484
999.491
999.498
999.504
999.51
999.516
999.521
999.526
999.53
999.535
999.539
999.542
999.546
999.549
999.552
999.555
999.558
999.56
999.563
999.565
999.567
999.569
999.571
999.573
999.575
999.577
999.578
999.58
999.582
999.322
999.321
999.322
999.328
999.337
999.345
999.355
999.364
999.374
999.383
999.393
999.402
999.411
999.42
999.429
999.438
999.446
999.454
999.462
999.47
999.477
999.484
999.491
999.497
999.503
999.509
999.514
999.519
999.524
999.528
999.532
999.536
999.54
999.543
999.546
999.549
999.552
999.555
999.557
999.559
999.562
999.564
999.565
999.567
999.569
999.57
999.572
999.573
999.575
999.576
999.332
999.334
999.335
999.341
999.348
999.355
999.364
999.372
999.381
999.389
999.398
999.407
999.415
999.424
999.432
999.44
999.448
999.456
999.463
999.47
999.477
999.484
999.49
999.496
999.502
999.507
999.512
999.517
999.522
999.526
999.53
999.534
999.537
999.541
999.544
999.547
999.549
999.552
999.554
999.556
999.558
999.56
999.562
999.563
999.565
999.566
999.567
999.568
999.57
999.57
999.343
999.345
999.347
999.352
999.358
999.365
999.372
999.38
999.387
999.395
999.403
999.411
999.419
999.427
999.435
999.442
999.45
999.457
999.464
999.471
999.477
999.484
999.49
999.496
999.501
999.506
999.511
999.516
999.52
999.524
999.528
999.532
999.535
999.538
999.541
999.544
999.546
999.549
999.551
999.553
999.555
999.556
999.558
999.559
999.56
999.562
999.563
999.564
999.564
999.565
999.354
999.357
999.359
999.363
999.369
999.375
999.381
999.388
999.395
999.402
999.409
999.416
999.424
999.431
999.438
999.445
999.452
999.459
999.465
999.472
999.478
999.484
999.49
999.495
999.5
999.505
999.51
999.514
999.519
999.523
999.526
999.53
999.533
999.536
999.539
999.541
999.543
999.546
999.548
999.549
999.551
999.553
999.554
999.555
999.556
999.557
999.558
999.559
999.559
999.559
999.365
999.368
999.37
999.374
999.379
999.384
999.39
999.396
999.402
999.408
999.415
999.422
999.428
999.435
999.442
999.448
999.455
999.461
999.467
999.473
999.479
999.484
999.49
999.495
999.5
999.505
999.509
999.513
999.517
999.521
999.524
999.528
999.531
999.533
999.536
999.538
999.541
999.543
999.545
999.546
999.548
999.549
999.55
999.551
999.552
999.553
999.553
999.554
999.554
999.554
999.376
999.378
999.381
999.385
999.389
999.393
999.398
999.404
999.409
999.415
999.421
999.427
999.433
999.439
999.445
999.451
999.457
999.463
999.469
999.474
999.48
999.485
999.49
999.495
999.5
999.504
999.508
999.512
999.516
999.519
999.523
999.526
999.529
999.531
999.534
999.536
999.538
999.54
999.541
999.543
999.544
999.546
999.547
999.547
999.548
999.549
999.549
999.549
999.549
999.549
999.387
999.389
999.392
999.395
999.398
999.402
999.407
999.411
999.416
999.421
999.427
999.432
999.438
999.443
999.449
999.454
999.46
999.465
999.471
999.476
999.481
999.486
999.49
999.495
999.499
999.503
999.507
999.511
999.515
999.518
999.521
999.524
999.526
999.529
999.531
999.533
999.535
999.537
999.538
999.54
999.541
999.542
999.543
999.544
999.544
999.544
999.545
999.544
999.544
999.544
999.398
999.399
999.402
999.405
999.408
999.411
999.415
999.419
999.423
999.428
999.433
999.437
999.442
999.448
999.453
999.458
999.463
999.468
999.473
999.477
999.482
999.486
999.491
999.495
999.499
999.503
999.507
999.51
999.513
999.516
999.519
999.522
999.524
999.527
999.529
999.531
999.533
999.534
999.535
999.537
999.538
999.539
999.539
999.54
999.54
999.54
999.54
999.54
999.539
999.539
999.409
999.409
999.412
999.414
999.416
999.419
999.423
999.426
999.43
999.434
999.438
999.443
999.447
999.452
999.456
999.461
999.465
999.47
999.475
999.479
999.483
999.487
999.491
999.495
999.499
999.503
999.506
999.509
999.512
999.515
999.518
999.52
999.523
999.525
999.527
999.528
999.53
999.531
999.533
999.534
999.535
999.535
999.536
999.536
999.536
999.536
999.536
999.536
999.535
999.534
999.419
999.419
999.421
999.423
999.425
999.427
999.43
999.433
999.437
999.44
999.444
999.448
999.452
999.456
999.46
999.464
999.468
999.472
999.476
999.481
999.484
999.488
999.492
999.496
999.499
999.502
999.505
999.508
999.511
999.514
999.516
999.519
999.521
999.523
999.524
999.526
999.527
999.529
999.53
999.531
999.531
999.532
999.532
999.533
999.533
999.532
999.532
999.531
999.53
999.529
999.429
999.428
999.43
999.431
999.433
999.435
999.437
999.44
999.443
999.446
999.449
999.453
999.456
999.46
999.464
999.467
999.471
999.475
999.478
999.482
999.486
999.489
999.493
999.496
999.499
999.502
999.505
999.508
999.51
999.513
999.515
999.517
999.519
999.521
999.522
999.524
999.525
999.526
999.527
999.528
999.528
999.529
999.529
999.529
999.529
999.529
999.528
999.527
999.526
999.525
999.438
999.437
999.438
999.439
999.441
999.442
999.444
999.446
999.449
999.452
999.454
999.457
999.46
999.464
999.467
999.47
999.474
999.477
999.48
999.484
999.487
999.49
999.493
999.496
999.499
999.502
999.505
999.507
999.509
999.512
999.514
999.516
999.517
999.519
999.52
999.522
999.523
999.524
999.524
999.525
999.525
999.526
999.526
999.526
999.525
999.525
999.524
999.523
999.522
999.521
999.447
999.445
999.446
999.447
999.448
999.449
999.451
999.452
999.455
999.457
999.459
999.462
999.465
999.467
999.47
999.473
999.476
999.479
999.482
999.485
999.488
999.491
999.494
999.497
999.499
999.502
999.504
999.506
999.509
999.511
999.512
999.514
999.516
999.517
999.518
999.52
999.52
999.521
999.522
999.522
999.523
999.523
999.523
999.523
999.522
999.522
999.521
999.52
999.518
999.517
999.455
999.453
999.454
999.454
999.455
999.456
999.457
999.458
999.46
999.462
999.464
999.466
999.469
999.471
999.474
999.476
999.479
999.481
999.484
999.487
999.489
999.492
999.495
999.497
999.499
999.502
999.504
999.506
999.508
999.51
999.511
999.513
999.514
999.515
999.517
999.518
999.518
999.519
999.519
999.52
999.52
999.52
999.52
999.519
999.519
999.518
999.517
999.516
999.515
999.513
999.462
999.46
999.461
999.461
999.461
999.462
999.463
999.464
999.465
999.467
999.468
999.47
999.472
999.474
999.477
999.479
999.481
999.484
999.486
999.488
999.491
999.493
999.495
999.497
999.5
999.502
999.503
999.505
999.507
999.509
999.51
999.511
999.513
999.514
999.515
999.516
999.516
999.517
999.517
999.517
999.517
999.517
999.517
999.517
999.516
999.515
999.514
999.513
999.511
999.51
999.469
999.467
999.467
999.467
999.467
999.467
999.468
999.469
999.47
999.471
999.472
999.474
999.476
999.478
999.48
999.481
999.484
999.486
999.488
999.49
999.492
999.494
999.496
999.498
999.5
999.501
999.503
999.505
999.506
999.508
999.509
999.51
999.511
999.512
999.513
999.514
999.514
999.515
999.515
999.515
999.515
999.515
999.514
999.514
999.513
999.512
999.511
999.51
999.508
999.506
999.476
999.474
999.473
999.473
999.473
999.473
999.473
999.474
999.474
999.475
999.476
999.478
999.479
999.481
999.482
999.484
999.486
999.488
999.489
999.491
999.493
999.495
999.496
999.498
999.5
999.501
999.503
999.504
999.506
999.507
999.508
999.509
999.51
999.511
999.511
999.512
999.512
999.513
999.513
999.513
999.513
999.512
999.512
999.511
999.51
999.509
999.508
999.507
999.505
999.503
999.481
999.479
999.479
999.478
999.478
999.478
999.478
999.478
999.478
999.479
999.48
999.481
999.482
999.484
999.485
999.486
999.488
999.489
999.491
999.492
999.494
999.496
999.497
999.499
999.5
999.501
999.503
999.504
999.505
999.506
999.507
999.508
999.509
999.509
999.51
999.51
999.511
999.511
999.511
999.511
999.51
999.51
999.509
999.509
999.508
999.507
999.505
999.504
999.502
999.5
999.487
999.485
999.484
999.483
999.483
999.482
999.482
999.482
999.482
999.483
999.484
999.484
999.485
999.486
999.487
999.489
999.49
999.491
999.492
999.494
999.495
999.496
999.498
999.499
999.5
999.501
999.503
999.504
999.505
999.505
999.506
999.507
999.508
999.508
999.509
999.509
999.509
999.509
999.509
999.509
999.508
999.508
999.507
999.506
999.505
999.504
999.503
999.501
999.499
999.497
999.492
999.49
999.489
999.488
999.487
999.486
999.486
999.486
999.486
999.486
999.487
999.487
999.488
999.489
999.49
999.491
999.492
999.493
999.494
999.495
999.496
999.497
999.498
999.499
999.5
999.501
999.502
999.503
999.504
999.505
999.505
999.506
999.507
999.507
999.507
999.507
999.507
999.507
999.507
999.507
999.506
999.506
999.505
999.504
999.503
999.502
999.5
999.499
999.497
999.495
999.497
999.494
999.493
999.492
999.491
999.49
999.49
999.49
999.49
999.49
999.49
999.49
999.491
999.491
999.492
999.493
999.493
999.494
999.495
999.496
999.497
999.498
999.499
999.5
999.501
999.501
999.502
999.503
999.504
999.504
999.505
999.505
999.505
999.506
999.506
999.506
999.506
999.506
999.505
999.505
999.504
999.504
999.503
999.502
999.501
999.499
999.498
999.496
999.494
999.492
999.501
999.499
999.497
999.496
999.495
999.494
999.493
999.493
999.493
999.493
999.493
999.493
999.493
999.493
999.494
999.494
999.495
999.496
999.496
999.497
999.498
999.499
999.499
999.5
999.501
999.501
999.502
999.503
999.503
999.504
999.504
999.504
999.504
999.505
999.505
999.505
999.504
999.504
999.504
999.503
999.503
999.502
999.501
999.5
999.499
999.497
999.496
999.494
999.492
999.49
999.505
999.502
999.501
999.5
999.499
999.498
999.497
999.496
999.496
999.495
999.495
999.495
999.495
999.496
999.496
999.496
999.497
999.497
999.498
999.498
999.499
999.499
999.5
999.5
999.501
999.501
999.502
999.502
999.503
999.503
999.503
999.503
999.504
999.504
999.504
999.503
999.503
999.503
999.502
999.502
999.501
999.5
999.499
999.498
999.497
999.495
999.494
999.492
999.49
999.488
999.508
999.506
999.505
999.503
999.502
999.501
999.5
999.499
999.498
999.498
999.498
999.498
999.497
999.497
999.498
999.498