/*--------------------------------*- C++ -*----------------------------------*\
  =========                 |
  \\      /  F ield         | OpenFOAM: The Open Source CFD Toolbox
   \\    /   O peration     | Website:  https://openfoam.org
    \\  /    A nd           | Version:  6
     \\/     M anipulation  |
\*---------------------------------------------------------------------------*/
FoamFile
{
    version     2.0;
    format      ascii;
    class       surfaceScalarField;
    location    "0.35";
    object      phi;
}
// * * * * * * * * * * * * * * * * * * * * * * * * * * * * * * * * * * * * * //

dimensions      [0 3 -1 0 0 0 0];

internalField   nonuniform List<scalar> 
11030
(
0.000112928
-1.89811e-07
0.000113053
-1.25606e-07
0.000113103
-4.96025e-08
0.000113074
2.94354e-08
0.000112971
1.02917e-07
0.000112791
1.79934e-07
0.000112527
2.6379e-07
0.000112173
3.54074e-07
0.000111721
4.51332e-07
0.000111164
5.57051e-07
0.000110492
6.72923e-07
0.000109691
8.00795e-07
0.000108748
9.42798e-07
0.000107647
1.10138e-06
0.000106367
1.27919e-06
0.000104888
1.47887e-06
0.000103186
1.70225e-06
0.000101237
1.94883e-06
9.90247e-05
2.21274e-06
2.47346e-06
9.65512e-05
0.000112919
-3.67482e-07
0.000112988
-1.9496e-07
0.000112982
-4.39084e-08
0.000112909
1.02378e-07
0.000112762
2.5004e-07
0.000112535
4.07364e-07
0.000112222
5.7664e-07
0.000111818
7.58291e-07
0.000111315
9.54222e-07
0.000110704
1.16735e-06
0.000109976
1.40095e-06
0.000109118
1.65873e-06
0.000108116
1.94494e-06
0.000106953
2.26445e-06
0.00010561
2.62254e-06
0.000104064
3.02431e-06
0.000102293
3.47333e-06
0.000100274
3.96845e-06
9.79886e-05
4.49793e-06
5.02525e-06
9.54368e-05
0.000112865
-4.87495e-07
0.000112893
-2.22602e-07
0.000112842
6.98173e-09
0.000112718
2.26439e-07
0.000112518
4.49467e-07
0.000112238
6.87475e-07
0.000111872
9.42928e-07
0.000111414
1.21673e-06
0.000110856
1.51198e-06
0.00011019
1.83304e-06
0.000109406
2.18474e-06
0.000108492
2.57257e-06
0.000107435
3.00285e-06
0.000106216
3.48276e-06
0.000104819
4.02004e-06
0.000103221
4.62219e-06
0.0001014
5.29446e-06
9.93329e-05
6.03526e-06
9.70032e-05
6.82768e-06
7.62218e-06
9.44063e-05
0.000112815
-5.50624e-07
0.000112786
-1.93747e-07
0.00011268
1.12941e-07
0.0001125
4.06255e-07
0.000112245
7.05256e-07
0.000111908
1.02419e-06
0.000111485
1.36593e-06
0.00011097
1.7318e-06
0.000110356
2.12595e-06
0.000109635
2.55411e-06
0.000108797
3.02259e-06
0.000107831
3.53851e-06
0.000106724
4.11011e-06
0.00010546
4.74665e-06
0.000104022
5.45813e-06
0.00010239
6.2542e-06
0.000100542
7.14168e-06
9.84591e-05
8.11864e-06
9.61233e-05
9.16346e-06
1.02163e-05
9.35292e-05
0.00011276
-5.4991e-07
0.000112668
-1.013e-07
0.0001125
2.8033e-07
0.00011226
6.46748e-07
0.000111944
1.02143e-06
0.000111547
1.42091e-06
0.000111065
1.84833e-06
0.000110491
2.30523e-06
0.00010982
2.79671e-06
0.000109045
3.32971e-06
0.000108156
3.91185e-06
0.000107142
4.55171e-06
0.000105993
5.25913e-06
0.000104695
6.04518e-06
0.000103231
6.92173e-06
0.000101585
7.90022e-06
9.97382e-05
8.98874e-06
9.76719e-05
1.01849e-05
9.53724e-05
1.14629e-05
1.27552e-05
9.28335e-05
0.000112699
-4.77433e-07
0.000112537
6.09665e-08
0.000112304
5.13689e-07
0.000111999
9.51937e-07
0.000111618
1.40173e-06
0.000111158
1.88096e-06
0.000110614
2.39277e-06
0.00010998
2.93878e-06
0.000109252
3.52488e-06
0.000108423
4.15905e-06
0.000107485
4.85e-06
0.000106429
5.60748e-06
0.000105245
6.44261e-06
0.000103923
7.36782e-06
0.000102448
8.39635e-06
0.000100807
9.54093e-06
9.89857e-05
1.08105e-05
9.69684e-05
1.22023e-05
9.47448e-05
1.36866e-05
1.51914e-05
9.23085e-05
0.00011263
-3.23267e-07
0.000112393
2.9822e-07
0.000112092
8.14817e-07
0.000111719
1.32476e-06
0.000111271
1.85006e-06
0.000110744
2.40799e-06
0.000110134
3.00226e-06
0.000109438
3.63464e-06
0.000108652
4.31158e-06
0.000107769
5.04192e-06
0.000106784
5.83522e-06
0.000105689
6.70209e-06
0.000104477
7.65448e-06
0.000103139
8.70566e-06
0.000101666
9.86963e-06
0.000100047
1.11598e-05
9.82721e-05
1.25855e-05
9.63308e-05
1.41436e-05
9.42155e-05
1.58019e-05
1.7488e-05
9.19189e-05
0.000112546
-7.17549e-08
0.000112232
6.12998e-07
0.000111866
1.18009e-06
0.000111424
1.76742e-06
0.000110902
2.37139e-06
0.000110304
3.00653e-06
0.000109625
3.68052e-06
0.000108864
4.39573e-06
0.000108017
5.15877e-06
0.00010708
5.97914e-06
0.000106048
6.86703e-06
0.000104917
7.83349e-06
0.00010368
8.89084e-06
0.000102334
1.00525e-05
0.000100871
1.13326e-05
9.9286e-05
1.27444e-05
9.75742e-05
1.42972e-05
9.57297e-05
1.59881e-05
9.37473e-05
1.77843e-05
1.96218e-05
9.16135e-05
0.000112424
3.16262e-07
0.000112049
9.88377e-07
0.000111633
1.59571e-06
0.000111115
2.28576e-06
0.000110513
2.97375e-06
0.000109837
3.68226e-06
0.000109085
4.43227e-06
0.000108255
5.2263e-06
0.000107343
6.07017e-06
0.000106348
6.97388e-06
0.000105267
7.94804e-06
0.000104097
9.00369e-06
0.000102835
1.01529e-05
0.000101479
1.14085e-05
0.000100028
1.27836e-05
9.84819e-05
1.42906e-05
9.6841e-05
1.59382e-05
9.51052e-05
1.77239e-05
9.32735e-05
1.96159e-05
2.15543e-05
9.1341e-05
0.000112241
9.06609e-07
0.000111881
1.34821e-06
0.00011141
2.06593e-06
0.000110797
2.89943e-06
0.000110106
3.66495e-06
0.000109348
4.43956e-06
0.000108519
5.26142e-06
0.000107616
6.12968e-06
0.000106637
7.04876e-06
0.000105582
8.02913e-06
0.000104449
9.08149e-06
0.000103236
1.02165e-05
0.000101943
1.14451e-05
0.000100573
1.2779e-05
9.91274e-05
1.42291e-05
9.76131e-05
1.58049e-05
9.60396e-05
1.75117e-05
9.44167e-05
1.93468e-05
9.27364e-05
2.12962e-05
9.09958e-05
2.32949e-05
8.63712e-05
1.018e-05
7.60506e-05
1.03205e-05
6.55762e-05
1.04744e-05
5.49445e-05
1.06317e-05
4.41728e-05
1.07717e-05
3.33376e-05
1.08352e-05
2.26547e-05
1.06829e-05
1.26334e-05
1.00213e-05
4.33155e-06
8.30183e-06
4.33155e-06
8.53542e-05
2.02626e-05
7.51233e-05
2.05515e-05
6.47394e-05
2.08583e-05
5.42021e-05
2.1169e-05
4.35328e-05
2.1441e-05
3.28131e-05
2.15549e-05
2.2261e-05
2.1235e-05
1.23836e-05
1.98987e-05
4.27253e-06
1.64129e-05
8.60408e-06
8.44268e-05
3.0242e-05
7.42911e-05
3.06872e-05
6.40002e-05
3.11492e-05
5.35564e-05
3.16129e-05
4.29836e-05
3.20138e-05
3.23674e-05
3.21711e-05
2.19305e-05
3.16719e-05
1.21833e-05
2.9646e-05
4.19222e-06
2.4404e-05
1.27963e-05
8.36422e-05
4.01291e-05
7.35926e-05
4.07368e-05
6.3386e-05
4.13558e-05
5.30253e-05
4.19736e-05
4.25357e-05
4.25034e-05
3.20052e-05
4.27016e-05
2.16609e-05
4.20162e-05
1.2016e-05
3.92908e-05
4.12642e-06
3.22936e-05
1.69227e-05
8.30234e-05
4.99392e-05
7.30446e-05
5.07156e-05
6.29069e-05
5.14934e-05
5.26127e-05
5.22679e-05
4.21867e-05
5.29294e-05
3.17195e-05
5.31687e-05
2.14429e-05
5.22928e-05
1.18756e-05
4.88581e-05
4.06892e-06
4.01003e-05
2.09916e-05
8.25587e-05
5.96891e-05
7.26333e-05
6.0641e-05
6.2547e-05
6.15797e-05
5.22996e-05
6.25153e-05
4.19153e-05
6.33137e-05
3.14878e-05
6.35963e-05
2.12555e-05
6.25251e-05
1.1746e-05
5.83675e-05
4.01132e-06
4.7835e-05
2.5003e-05
8.22102e-05
6.93977e-05
7.23195e-05
7.05317e-05
6.22659e-05
7.16332e-05
5.20443e-05
7.27368e-05
4.16792e-05
7.36788e-05
3.12692e-05
7.40063e-05
2.10632e-05
7.27312e-05
1.16015e-05
6.78292e-05
3.94069e-06
5.54958e-05
2.89437e-05
8.19173e-05
7.90939e-05
7.20381e-05
8.04109e-05
6.1997e-05
8.16743e-05
5.17791e-05
8.29547e-05
4.14122e-05
8.40457e-05
3.10036e-05
8.44149e-05
2.08165e-05
8.29183e-05
1.14079e-05
7.72378e-05
3.84007e-06
6.30636e-05
3.27837e-05
8.15787e-05
8.88562e-05
7.16806e-05
9.03091e-05
6.16287e-05
9.17262e-05
5.13951e-05
9.31883e-05
4.10165e-05
9.44243e-05
3.06096e-05
9.48218e-05
2.04538e-05
9.30741e-05
1.11219e-05
8.65696e-05
3.68538e-06
7.05001e-05
3.64691e-05
8.09576e-05
9.88944e-05
7.10467e-05
0.00010022
6.09658e-05
0.000101807
5.07208e-05
0.000103433
4.03531e-05
0.000104792
2.99825e-05
0.000105192
1.98982e-05
0.000103158
1.06825e-05
9.57853e-05
3.42701e-06
7.77556e-05
3.98961e-05
3.09784e-05
0.000104233
-3.63174e-05
2.56674e-05
0.000105531
2.04436e-05
0.000107031
1.53563e-05
0.000108521
1.05527e-05
0.000109596
6.28562e-06
0.000109459
2.89888e-06
0.000106545
7.37451e-07
9.79467e-05
-7.37698e-08
7.85668e-05
3.98223e-05
2.52003e-05
0.000109048
-3.00151e-05
2.0383e-05
0.000110348
1.56628e-05
0.000111751
1.11487e-05
0.000113035
7.00448e-06
0.00011374
3.48046e-06
0.000112983
8.91336e-07
0.000109134
-4.75955e-07
9.9314e-05
-5.7995e-07
7.86708e-05
3.92424e-05
1.94697e-05
0.000113369
-2.37907e-05
1.51588e-05
0.000114659
1.09775e-05
0.000115932
7.06051e-06
0.000116952
3.59203e-06
0.000117208
8.21773e-07
0.000115754
-9.64071e-07
0.00011092
-1.54183e-06
9.98918e-05
-9.71568e-07
7.81005e-05
3.82708e-05
1.38417e-05
0.000117199
-1.76712e-05
1.00548e-05
0.000118446
6.43447e-06
0.000119553
3.13477e-06
0.000120251
3.55034e-07
0.000119988
-1.65817e-06
0.000117767
-2.64987e-06
0.000111912
-2.466e-06
9.97079e-05
-1.28163e-06
7.69162e-05
3.69892e-05
8.35578e-06
0.000120535
-1.16916e-05
5.10259e-06
0.000121699
2.06041e-06
0.000122595
-6.04293e-07
0.000122916
-2.6842e-06
0.000122068
-3.94188e-06
0.000119025
-4.15942e-06
0.000112129
-3.25752e-06
9.8806e-05
-1.52581e-06
7.51845e-05
3.54634e-05
3.0397e-06
0.000123375
-5.87991e-06
3.26811e-07
0.000124412
-2.12479e-06
0.000125047
-4.14128e-06
0.000124933
-5.51445e-06
0.000123441
-6.02325e-06
0.000119533
-5.49348e-06
0.0001116
-3.92424e-06
9.72368e-05
-1.71284e-06
7.29731e-05
3.37506e-05
-2.08775e-06
0.000125717
-2.54382e-07
-4.25487e-06
0.000126579
-6.10647e-06
0.000126898
-7.46557e-06
0.000126292
-8.12971e-06
0.000124105
-7.90147e-06
0.000119305
-6.65682e-06
0.000110355
-4.47501e-06
9.5055e-05
-1.85092e-06
7.0349e-05
3.18996e-05
-7.01639e-06
0.000127558
5.17527e-06
-8.63195e-06
0.000128195
-9.87532e-06
0.000128142
-1.05703e-05
0.000126987
-1.05265e-05
0.000124061
-9.57743e-06
0.000118356
-7.65509e-06
0.000108433
-4.91868e-06
9.23186e-05
-1.94738e-06
6.73777e-05
2.99522e-05
-1.17415e-05
0.000128895
1.04046e-05
-1.27978e-05
0.000129251
-1.34228e-05
0.000128767
-1.34461e-05
0.00012701
-1.26965e-05
0.000123312
-1.10466e-05
0.000116706
-8.49027e-06
0.000105876
-5.26333e-06
8.90916e-05
-2.01001e-06
6.41244e-05
2.79422e-05
-1.62576e-05
1.54414e-05
0.000129711
-1.6732e-05
0.000129726
-1.67167e-05
0.000128751
-1.60548e-05
0.000126348
-1.46041e-05
0.000121861
-1.22855e-05
0.000114388
-9.15742e-06
0.000102748
-5.52081e-06
8.5455e-05
-2.05578e-06
6.06593e-05
2.58865e-05
7.99442e-05
-3.69701e-05
-7.92915e-05
8.08114e-05
-3.08824e-05
8.1866e-05
-2.48453e-05
8.30536e-05
-1.88588e-05
8.43323e-05
-1.29703e-05
8.56542e-05
-7.20184e-06
8.6969e-05
-1.56919e-06
8.82274e-05
3.9169e-06
8.93834e-05
9.24857e-06
1.4439e-05
9.03859e-05
8.06028e-05
-3.74428e-05
-8.01301e-05
8.12695e-05
-3.15491e-05
8.2124e-05
-2.56998e-05
8.31231e-05
-1.98579e-05
8.42289e-05
-1.4076e-05
8.54003e-05
-8.37325e-06
8.65943e-05
-2.76326e-06
8.77687e-05
2.74251e-06
8.88831e-05
8.13419e-06
1.34272e-05
8.98949e-05
8.11685e-05
-3.77163e-05
-8.0895e-05
8.16511e-05
-3.20317e-05
8.2318e-05
-2.63666e-05
8.31367e-05
-2.06766e-05
8.40739e-05
-1.50132e-05
8.5095e-05
-9.39439e-06
8.61642e-05
-3.83243e-06
8.72459e-05
1.66079e-06
8.83059e-05
7.07424e-06
1.24232e-05
8.93099e-05
8.16606e-05
-3.78429e-05
-8.1534e-05
8.19822e-05
-3.23533e-05
8.24787e-05
-2.68632e-05
8.31276e-05
-2.13255e-05
8.39023e-05
-1.57879e-05
8.4775e-05
-1.02671e-05
8.57169e-05
-4.77428e-06
8.66989e-05
6.78724e-07
8.76927e-05
6.08043e-06
1.14449e-05
8.86711e-05
8.20707e-05
-3.78519e-05
-8.20616e-05
8.2256e-05
-3.25386e-05
8.26031e-05
-2.72103e-05
8.30984e-05
-2.18208e-05
8.37224e-05
-1.6412e-05
8.44541e-05
-1.09989e-05
8.52713e-05
-5.59139e-06
8.6151e-05
-2.01036e-07
8.70705e-05
5.16098e-06
1.05073e-05
8.80081e-05
8.23977e-05
-3.77572e-05
-8.24924e-05
8.24649e-05
-3.26059e-05
8.26824e-05
-2.74278e-05
8.30425e-05
-2.21808e-05
8.35316e-05
-1.69011e-05
8.41343e-05
-1.16016e-05
8.48342e-05
-6.2912e-06
8.56137e-05
-9.80614e-07
8.64552e-05
4.31956e-06
9.62073e-06
8.73417e-05
8.26481e-05
-3.75688e-05
-8.28366e-05
8.26111e-05
-3.25689e-05
8.27157e-05
-2.75324e-05
8.29578e-05
-2.2423e-05
8.33281e-05
-1.72713e-05
8.38153e-05
-1.20889e-05
8.44077e-05
-6.88358e-06
8.50924e-05
-1.66534e-06
8.58559e-05
3.55605e-06
8.79103e-06
8.66856e-05
8.28302e-05
-3.72951e-05
-8.31039e-05
8.27005e-05
-3.24392e-05
8.27063e-05
-2.75381e-05
8.28455e-05
-2.25621e-05
8.31115e-05
-1.75373e-05
8.34965e-05
-1.24739e-05
8.3992e-05
-7.37913e-06
8.4589e-05
-2.26227e-06
8.52773e-05
2.86775e-06
8.02052e-06
8.60478e-05
8.29525e-05
-3.69441e-05
-8.33036e-05
8.274e-05
-3.22266e-05
8.26587e-05
-2.74569e-05
8.27077e-05
-2.26112e-05
8.28825e-05
-1.7712e-05
8.31774e-05
-1.27688e-05
8.35865e-05
-7.78824e-06
8.41034e-05
-2.77914e-06
8.47208e-05
2.25029e-06
7.30889e-06
8.54324e-05
8.3023e-05
-3.65228e-05
-8.34443e-05
8.27363e-05
-3.19399e-05
8.2578e-05
-2.72985e-05
8.25478e-05
-2.2581e-05
8.26424e-05
-1.78067e-05
8.28579e-05
-1.29843e-05
8.31902e-05
-8.12054e-06
8.36348e-05
-3.22372e-06
8.41866e-05
1.69847e-06
6.65411e-06
8.48414e-05
8.30492e-05
-3.60381e-05
-8.3534e-05
8.26959e-05
-3.15866e-05
8.24691e-05
-2.70717e-05
8.23689e-05
-2.24808e-05
8.2393e-05
-1.78307e-05
8.25385e-05
-1.31298e-05
8.28026e-05
-8.38465e-06
8.31822e-05
-3.60335e-06
8.36739e-05
1.2068e-06
6.05308e-06
8.42749e-05
8.30377e-05
-3.54961e-05
-8.35798e-05
8.26248e-05
-3.11737e-05
8.2337e-05
-2.6784e-05
8.21748e-05
-2.23185e-05
8.21364e-05
-1.77924e-05
8.222e-05
-1.32134e-05
8.24235e-05
-8.58817e-06
8.27449e-05
-3.92474e-06
8.31818e-05
7.69906e-07
5.50219e-06
8.37327e-05
8.29946e-05
-3.49025e-05
-8.35882e-05
8.25283e-05
-3.07073e-05
8.2186e-05
-2.64417e-05
8.19686e-05
-2.21011e-05
8.18748e-05
-1.76986e-05
8.19033e-05
-1.32419e-05
8.20529e-05
-8.73771e-06
8.2322e-05
-4.19389e-06
8.27092e-05
3.82705e-07
4.99763e-06
8.32138e-05
8.29253e-05
-3.42626e-05
-8.35652e-05
8.24109e-05
-3.0193e-05
8.20201e-05
-2.60509e-05
8.17534e-05
-2.18344e-05
8.16102e-05
-1.75555e-05
8.15897e-05
-1.32214e-05
8.1691e-05
-8.83903e-06
8.19133e-05
-4.41613e-06
8.22554e-05
4.05427e-08
4.53568e-06
8.27174e-05
8.28343e-05
-3.3581e-05
-8.35158e-05
8.22771e-05
-2.96357e-05
8.18426e-05
-2.56164e-05
8.15319e-05
-2.15236e-05
8.13446e-05
-1.73681e-05
8.12802e-05
-1.3157e-05
8.13383e-05
-8.89711e-06
8.15183e-05
-4.59613e-06
8.18196e-05
-2.60792e-07
4.11277e-06
8.22425e-05
8.2726e-05
-3.28622e-05
-8.34448e-05
8.21303e-05
-2.904e-05
8.16568e-05
-2.51429e-05
8.13066e-05
-2.11734e-05
8.10797e-05
-1.71413e-05
8.09759e-05
-1.30532e-05
8.09951e-05
-8.9163e-06
8.1137e-05
-4.73802e-06
8.14013e-05
-5.25072e-07
3.72561e-06
8.17884e-05
8.26039e-05
-3.21099e-05
-8.33562e-05
8.19737e-05
-2.84097e-05
8.14652e-05
-2.46344e-05
8.10795e-05
-2.07878e-05
8.08171e-05
-1.68788e-05
8.06779e-05
-1.2914e-05
8.0662e-05
-8.90041e-06
8.07694e-05
-4.84542e-06
8.1e-05
-7.55662e-07
3.37118e-06
8.13544e-05
8.24713e-05
-3.13277e-05
-8.32536e-05
8.18101e-05
-2.77485e-05
8.12701e-05
-2.40944e-05
8.08526e-05
-2.03703e-05
8.05581e-05
-1.65843e-05
8.03869e-05
-1.27428e-05
8.03392e-05
-8.85278e-06
8.04153e-05
-4.92152e-06
8.06152e-05
-9.55566e-07
3.04673e-06
8.09397e-05
8.23309e-05
-3.05185e-05
-8.31401e-05
8.16419e-05
-2.70595e-05
8.10736e-05
-2.35261e-05
8.06273e-05
-1.9924e-05
8.03039e-05
-1.62608e-05
8.01037e-05
-1.25427e-05
8.00273e-05
-8.77638e-06
8.0075e-05
-4.96916e-06
8.02469e-05
-1.12747e-06
2.74976e-06
8.05438e-05
8.21851e-05
-2.96852e-05
-8.30185e-05
8.14711e-05
-2.63455e-05
8.08773e-05
-2.29323e-05
8.04051e-05
-1.94518e-05
8.00554e-05
-1.59111e-05
7.9829e-05
-1.23163e-05
7.97265e-05
-8.67383e-06
7.97482e-05
-4.99087e-06
7.98945e-05
-1.27377e-06
2.47801e-06
8.01662e-05
8.2036e-05
-2.88302e-05
-8.2891e-05
8.12995e-05
-2.56089e-05
8.06826e-05
-2.23154e-05
8.0187e-05
-1.89562e-05
7.98136e-05
-1.55378e-05
7.95634e-05
-1.2066e-05
7.9437e-05
-8.54746e-06
7.9435e-05
-4.9889e-06
7.95579e-05
-1.39662e-06
2.22944e-06
7.98065e-05
8.18853e-05
-2.79557e-05
-8.27598e-05
8.11285e-05
-2.48521e-05
8.04908e-05
-2.16778e-05
7.99739e-05
-1.84393e-05
7.9579e-05
-1.51429e-05
7.93071e-05
-1.17941e-05
7.9159e-05
-8.39936e-06
7.91354e-05
-4.96527e-06
7.92368e-05
-1.49797e-06
2.0022e-06
7.9464e-05
8.17345e-05
-2.70636e-05
-8.26266e-05
8.09594e-05
-2.4077e-05
8.03029e-05
-2.10213e-05
7.97668e-05
-1.79032e-05
7.93523e-05
-1.47284e-05
7.90606e-05
-1.15025e-05
7.88927e-05
-8.23142e-06
7.88492e-05
-4.92181e-06
7.89308e-05
-1.57958e-06
1.79459e-06
7.91384e-05
8.15849e-05
-2.61556e-05
-8.24928e-05
8.07932e-05
-2.32853e-05
8.01197e-05
-2.03478e-05
7.95661e-05
-1.73496e-05
7.91338e-05
-1.42961e-05
7.88241e-05
-1.11928e-05
7.8638e-05
-8.04533e-06
7.85764e-05
-4.86017e-06
7.86398e-05
-1.64303e-06
1.60508e-06
7.88293e-05
8.14375e-05
-2.52334e-05
-8.23598e-05
8.06309e-05
-2.24787e-05
7.99419e-05
-1.96588e-05
7.93724e-05
-1.678e-05
7.89239e-05
-1.38476e-05
7.85977e-05
-1.08666e-05
7.8395e-05
-7.84262e-06
7.83166e-05
-4.78182e-06
7.83634e-05
-1.68979e-06
1.43226e-06
7.85362e-05
8.12933e-05
-2.42982e-05
-8.22284e-05
8.04731e-05
-2.16585e-05
7.977e-05
-1.89557e-05
7.9186e-05
-1.6196e-05
7.87227e-05
-1.33843e-05
7.83815e-05
-1.05253e-05
7.81635e-05
-7.62467e-06
7.80698e-05
-4.68815e-06
7.81012e-05
-1.72117e-06
1.27484e-06
7.82587e-05
8.11529e-05
-2.33513e-05
-8.20997e-05
8.03204e-05
-2.0826e-05
7.96046e-05
-1.82399e-05
7.90074e-05
-1.55989e-05
7.85305e-05
-1.29074e-05
7.81755e-05
-1.01703e-05
7.79436e-05
-7.39275e-06
7.78358e-05
-4.58037e-06
7.7853e-05
-1.73838e-06
1.13163e-06
7.79962e-05
8.10169e-05
-2.23938e-05
-8.19744e-05
8.01733e-05
-1.99824e-05
7.94459e-05
-1.75125e-05
7.88366e-05
-1.49896e-05
7.83474e-05
-1.24182e-05
7.79798e-05
-9.80266e-06
7.7735e-05
-7.148e-06
7.76143e-05
-4.45962e-06
7.76184e-05
-1.74254e-06
1.00155e-06
7.77485e-05
8.08859e-05
-2.14267e-05
-8.1853e-05
8.00321e-05
-1.91286e-05
7.92941e-05
-1.67745e-05
7.86739e-05
-1.43695e-05
7.81734e-05
-1.19177e-05
7.77942e-05
-9.42344e-06
7.75377e-05
-6.89147e-06
7.7405e-05
-4.32694e-06
7.73971e-05
-1.73466e-06
8.83602e-07
7.7515e-05
8.07602e-05
-2.04509e-05
-8.1736e-05
7.98972e-05
-1.82657e-05
7.91496e-05
-1.60268e-05
7.85194e-05
-1.37393e-05
7.80085e-05
-1.14068e-05
7.76187e-05
-9.0336e-06
7.73513e-05
-6.62412e-06
7.72077e-05
-4.18327e-06
7.71887e-05
-1.71568e-06
7.76849e-07
7.72954e-05
8.06401e-05
-1.94672e-05
-8.16238e-05
7.97688e-05
-1.73943e-05
7.90124e-05
-1.52704e-05
7.8373e-05
-1.30999e-05
7.78527e-05
-1.08865e-05
7.74531e-05
-8.63404e-06
7.71758e-05
-6.34682e-06
7.70221e-05
-4.0295e-06
7.69928e-05
-1.68646e-06
6.80435e-07
7.70893e-05
8.05259e-05
-1.84763e-05
-8.15168e-05
7.96469e-05
-1.65154e-05
7.88825e-05
-1.4506e-05
7.82348e-05
-1.24522e-05
7.77058e-05
-1.03575e-05
7.72974e-05
-8.22557e-06
7.70109e-05
-6.06041e-06
7.68479e-05
-3.86643e-06
7.68092e-05
-1.64782e-06
5.93565e-07
7.68961e-05
8.04177e-05
-1.74789e-05
-8.14151e-05
7.95318e-05
-1.56295e-05
7.87601e-05
-1.37343e-05
7.81048e-05
-1.17969e-05
7.75679e-05
-9.82064e-06
7.71513e-05
-7.80893e-06
7.68565e-05
-5.76561e-06
7.66848e-05
-3.69481e-06
7.66375e-05
-1.60049e-06
5.15499e-07
7.67156e-05
8.03156e-05
-1.64756e-05
-8.13189e-05
7.94235e-05
-1.47374e-05
7.86451e-05
-1.29559e-05
7.79829e-05
-1.11346e-05
7.74387e-05
-9.27652e-06
7.70146e-05
-7.38482e-06
7.67121e-05
-5.46312e-06
7.65327e-05
-3.51533e-06
7.64773e-05
-1.54517e-06
4.45547e-07
7.65473e-05
8.02197e-05
-1.5467e-05
-8.12283e-05
7.93219e-05
-1.38396e-05
7.85376e-05
-1.21716e-05
7.7869e-05
-1.0466e-05
7.73183e-05
-8.7258e-06
7.68873e-05
-6.95386e-06
7.65778e-05
-5.15359e-06
7.63911e-05
-3.32864e-06
7.63284e-05
-1.4825e-06
3.83065e-07
7.63909e-05
8.01301e-05
-1.44536e-05
-8.11435e-05
7.92272e-05
-1.29367e-05
7.84374e-05
-1.13818e-05
7.7763e-05
-9.7917e-06
7.72063e-05
-8.16907e-06
7.67691e-05
-6.51667e-06
7.64531e-05
-4.83762e-06
7.62598e-05
-3.13534e-06
7.61904e-05
-1.41308e-06
3.2745e-07
7.6246e-05
8.00467e-05
-1.3436e-05
-8.10644e-05
7.91392e-05
-1.20292e-05
7.83445e-05
-1.05871e-05
7.7665e-05
-9.11216e-06
7.71028e-05
-7.60687e-06
7.66599e-05
-6.07378e-06
7.6338e-05
-4.51576e-06
7.61387e-05
-2.93598e-06
7.60631e-05
-1.33747e-06
2.7814e-07
7.61124e-05
7.99697e-05
-1.24145e-05
-8.09912e-05
7.9058e-05
-1.11175e-05
7.82589e-05
-9.78791e-06
7.75746e-05
-8.42791e-06
7.70075e-05
-7.03973e-06
7.65594e-05
-5.62572e-06
7.62322e-05
-4.18854e-06
7.60273e-05
-2.7311e-06
7.5946e-05
-1.25621e-06
2.34602e-07
7.59896e-05
7.98988e-05
-1.13896e-05
-8.09237e-05
7.89835e-05
-1.02022e-05
7.81804e-05
-8.98479e-06
7.74919e-05
-7.73943e-06
7.69203e-05
-6.46811e-06
7.64675e-05
-5.17297e-06
7.61354e-05
-3.85644e-06
7.59255e-05
-2.52119e-06
7.58391e-05
-1.16978e-06
1.96335e-07
7.58774e-05
7.98342e-05
-1.03618e-05
-8.08621e-05
7.89156e-05
-9.28361e-06
7.8109e-05
-8.17814e-06
7.74167e-05
-7.04716e-06
7.68411e-05
-5.89247e-06
7.63841e-05
-4.71599e-06
7.60476e-05
-3.51994e-06
7.58331e-05
-2.30672e-06
7.5742e-05
-1.07867e-06
1.62864e-07
7.57755e-05
7.97758e-05
-9.33132e-06
-8.08063e-05
7.88544e-05
-8.36216e-06
7.80446e-05
-7.36837e-06
7.7349e-05
-6.35153e-06
7.67697e-05
-5.31323e-06
7.63089e-05
-4.25522e-06
7.59685e-05
-3.17946e-06
7.57499e-05
-2.08812e-06
7.56545e-05
-9.83308e-07
1.33741e-07
7.56836e-05
7.97235e-05
-8.29868e-06
-8.07562e-05
7.87996e-05
-7.43824e-06
7.79871e-05
-6.55587e-06
7.72885e-05
-5.65292e-06
7.67061e-05
-4.73081e-06
7.62419e-05
-3.79106e-06
7.58979e-05
-2.83542e-06
7.56756e-05
-1.86582e-06
7.55764e-05
-8.84128e-07
1.08533e-07
7.56016e-05
7.96773e-05
-7.2642e-06
-8.07118e-05
7.87513e-05
-6.51223e-06
7.79364e-05
-5.74102e-06
7.72352e-05
-4.95173e-06
7.665e-05
-4.14558e-06
7.61829e-05
-3.3239e-06
7.58357e-05
-2.48821e-06
7.56101e-05
-1.64021e-06
7.55075e-05
-7.81534e-07
8.68267e-08
7.55292e-05
7.96371e-05
-6.22824e-06
-8.06731e-05
7.87094e-05
-5.58448e-06
7.78925e-05
-4.92418e-06
7.71891e-05
-4.24832e-06
7.66014e-05
-3.55791e-06
7.61317e-05
-2.85411e-06
7.57817e-05
-2.13822e-06
7.55532e-05
-1.41169e-06
7.54475e-05
-6.75917e-07
6.82221e-08
7.54661e-05
7.96029e-05
-5.19114e-06
-8.064e-05
7.86738e-05
-4.65534e-06
7.78553e-05
-4.10571e-06
7.715e-05
-3.54303e-06
7.65602e-05
-2.96817e-06
7.60882e-05
-2.38206e-06
7.57358e-05
-1.78581e-06
7.55047e-05
-1.18062e-06
7.53965e-05
-5.6766e-07
5.23305e-08
7.54124e-05
7.95746e-05
-4.15324e-06
-8.06125e-05
7.86444e-05
-3.72514e-06
7.78246e-05
-3.28593e-06
7.71178e-05
-2.83621e-06
7.65263e-05
-2.37668e-06
7.60524e-05
-1.9081e-06
7.56979e-05
-1.43134e-06
7.54646e-05
-9.47371e-07
7.53541e-05
-4.57139e-07
3.8766e-08
7.53677e-05
7.95522e-05
-3.11487e-06
-8.05906e-05
7.86213e-05
-2.79421e-06
7.78005e-05
-2.46516e-06
7.70925e-05
-2.12818e-06
7.64996e-05
-1.78379e-06
7.6024e-05
-1.43256e-06
7.56678e-05
-1.07516e-06
7.54328e-05
-7.12311e-07
7.53204e-05
-3.44727e-07
2.71441e-08
7.5332e-05
7.95356e-05
-2.07635e-06
-8.05741e-05
7.86042e-05
-1.86286e-06
7.77828e-05
-1.64372e-06
7.70739e-05
-1.41926e-06
7.64799e-05
-1.18982e-06
7.60031e-05
-9.55794e-07
7.56456e-05
-7.17627e-07
7.54091e-05
-4.75805e-07
7.52952e-05
-2.30801e-07
1.70758e-08
7.53052e-05
7.95248e-05
-1.03797e-06
-8.05631e-05
7.85933e-05
-9.31364e-07
7.77714e-05
-8.219e-07
7.70619e-05
-7.09751e-07
7.64672e-05
-5.95102e-07
7.59896e-05
-4.78147e-07
7.56311e-05
-3.5911e-07
7.53935e-05
-2.38233e-07
7.52784e-05
-1.15755e-07
8.16496e-09
7.52874e-05
7.95196e-05
-8.05576e-05
7.85882e-05
7.77663e-05
7.70566e-05
7.64615e-05
7.59833e-05
7.56242e-05
7.5386e-05
7.52702e-05
7.52784e-05
7.78408e-05
8.13867e-07
7.77425e-05
1.44645e-06
7.76696e-05
2.13887e-06
7.76252e-05
2.94385e-06
7.75638e-05
3.72633e-06
7.74864e-05
4.51698e-06
7.74021e-05
5.34572e-06
7.73148e-05
6.217e-06
7.72276e-05
7.13592e-06
7.71454e-05
8.11137e-06
7.70743e-05
9.15259e-06
7.7022e-05
1.02687e-05
7.69981e-05
1.14691e-05
7.70143e-05
1.27628e-05
7.70853e-05
1.41582e-05
7.72289e-05
1.56614e-05
7.74672e-05
1.72734e-05
7.78319e-05
1.89822e-05
7.83885e-05
2.07396e-05
2.23919e-05
7.78381e-05
7.39342e-07
7.77766e-05
1.50794e-06
7.77203e-05
2.19521e-06
7.76868e-05
2.97734e-06
7.76454e-05
3.76775e-06
7.75946e-05
4.56776e-06
7.75414e-05
5.39889e-06
7.74899e-05
6.26849e-06
7.74438e-05
7.18202e-06
7.74082e-05
8.14696e-06
7.73897e-05
9.17117e-06
7.73961e-05
1.02623e-05
7.74373e-05
1.14279e-05
7.75253e-05
1.26748e-05
7.76747e-05
1.40087e-05
7.79036e-05
1.54325e-05
7.82341e-05
1.69429e-05
7.86946e-05
1.85217e-05
7.93206e-05
2.01135e-05
2.15824e-05
7.7809e-05
7.06796e-07
7.77894e-05
1.52755e-06
7.77596e-05
2.22498e-06
7.77398e-05
2.99717e-06
7.77183e-05
3.78927e-06
7.76935e-05
4.59252e-06
7.76703e-05
5.42214e-06
7.76526e-05
6.28609e-06
7.76449e-05
7.18981e-06
7.76522e-05
8.13963e-06
7.76812e-05
9.14212e-06
7.774e-05
1.02035e-05
7.78382e-05
1.13297e-05
7.79873e-05
1.25256e-05
7.82015e-05
1.37945e-05
7.84973e-05
1.51368e-05
7.8894e-05
1.65462e-05
7.94129e-05
1.80027e-05
8.00745e-05
1.9452e-05
2.07619e-05
7.78056e-05
6.89679e-07
7.78016e-05
1.53157e-06
7.77915e-05
2.23512e-06
7.77873e-05
3.00134e-06
7.7785e-05
3.79154e-06
7.77844e-05
4.59318e-06
7.7789e-05
5.41753e-06
7.78028e-05
6.27223e-06
7.78303e-05
7.16235e-06
7.78767e-05
8.09323e-06
7.79485e-05
9.07029e-06
7.80536e-05
1.00985e-05
7.82011e-05
1.11822e-05
7.84021e-05
1.23246e-05
7.86694e-05
1.35273e-05
7.90175e-05
1.47886e-05
7.9463e-05
1.61007e-05
8.00225e-05
1.74432e-05
8.07103e-05
1.87642e-05
1.99382e-05
7.7811e-05
6.78945e-07
7.78165e-05
1.52611e-06
7.78209e-05
2.23069e-06
7.78312e-05
2.99112e-06
7.78465e-05
3.77617e-06
7.78677e-05
4.57202e-06
7.78976e-05
5.38757e-06
7.79401e-05
6.22974e-06
7.79995e-05
7.10301e-06
7.80809e-05
8.01184e-06
7.81906e-05
8.96057e-06
7.8336e-05
9.95305e-06
7.85258e-05
1.09923e-05
7.87701e-05
1.20803e-05
7.90804e-05
1.32171e-05
7.94694e-05
1.43996e-05
7.99508e-05
1.56193e-05
8.0538e-05
1.6856e-05
8.12409e-05
1.80613e-05
1.91174e-05
7.78209e-05
6.70006e-07
7.78331e-05
1.51384e-06
7.78488e-05
2.21501e-06
7.78719e-05
2.96805e-06
7.79031e-05
3.74492e-06
7.79437e-05
4.53144e-06
7.79963e-05
5.335e-06
7.80643e-05
6.16171e-06
7.8152e-05
7.01537e-06
7.82642e-05
7.89962e-06
7.84069e-05
8.81787e-06
7.8587e-05
9.77296e-06
7.88124e-05
1.07669e-05
7.90923e-05
1.18004e-05
7.94368e-05
1.28726e-05
7.9857e-05
1.39795e-05
8.03641e-05
1.51122e-05
8.09689e-05
1.62513e-05
8.16785e-05
1.73517e-05
1.83035e-05
7.78327e-05
6.60693e-07
7.78504e-05
1.49609e-06
7.78752e-05
2.19023e-06
7.79096e-05
2.93363e-06
7.7955e-05
3.69959e-06
7.80127e-05
4.47376e-06
7.80851e-05
5.26254e-06
7.81756e-05
6.07125e-06
7.82879e-05
6.90302e-06
7.84268e-05
7.7607e-06
7.85978e-05
8.64692e-06
7.88071e-05
9.56363e-06
7.90621e-05
1.05119e-05
7.93707e-05
1.14918e-05
7.97419e-05
1.25014e-05
8.0185e-05
1.35363e-05
8.07096e-05
1.45876e-05
8.13242e-05
1.56367e-05
8.20338e-05
1.6642e-05
1.75008e-05
7.78452e-05
6.50151e-07
7.78677e-05
1.4736e-06
7.79001e-05
2.15782e-06
7.79445e-05
2.88928e-06
7.80022e-05
3.64189e-06
7.80747e-05
4.40119e-06
7.81645e-05
5.17282e-06
7.82743e-05
5.9614e-06
7.84079e-05
6.76941e-06
7.85696e-05
7.59903e-06
7.87643e-05
8.45217e-06
7.89979e-05
9.33007e-06
7.92767e-05
1.02331e-05
7.9608e-05
1.11605e-05
7.99993e-05
1.211e-05
8.04587e-05
1.30769e-05
8.0994e-05
1.40522e-05
8.1612e-05
1.50188e-05
8.23164e-05
1.59376e-05
1.67133e-05
7.78578e-05
6.38131e-07
7.78845e-05
1.44692e-06
7.79234e-05
2.11889e-06
7.79763e-05
2.83634e-06
7.80448e-05
3.57347e-06
7.81302e-05
4.3158e-06
7.82347e-05
5.06831e-06
7.83611e-05
5.83501e-06
7.85126e-05
6.61782e-06
7.86934e-05
7.41832e-06
7.89078e-05
8.23779e-06
7.9161e-05
9.07687e-06
7.94587e-05
9.93538e-06
7.98072e-05
1.08121e-05
8.0213e-05
1.17042e-05
8.0683e-05
1.26069e-05
8.12235e-05
1.35118e-05
8.18398e-05
1.44024e-05
8.25346e-05
1.52428e-05
1.59443e-05
7.78702e-05
6.24652e-07
7.79005e-05
1.41659e-06
7.7945e-05
2.07441e-06
7.80053e-05
2.77601e-06
7.80829e-05
3.49587e-06
7.81792e-05
4.21949e-06
7.82962e-05
4.95129e-06
7.84365e-05
5.69476e-06
7.8603e-05
6.45129e-06
7.87994e-05
7.22196e-06
7.90296e-05
8.00753e-06
7.92983e-05
8.80815e-06
7.96105e-05
9.62318e-06
7.99716e-05
1.0451e-05
8.03872e-05
1.12886e-05
8.08628e-05
1.21313e-05
8.14039e-05
1.29707e-05
8.20146e-05
1.37917e-05
8.26964e-05
1.45611e-05
1.51964e-05
7.78822e-05
6.0985e-07
7.79157e-05
1.3831e-06
7.79648e-05
2.02522e-06
7.80314e-05
2.70944e-06
7.81167e-05
3.41053e-06
7.82222e-05
4.11403e-06
7.83496e-05
4.82389e-06
7.85013e-05
5.54309e-06
7.868e-05
6.27261e-06
7.88889e-05
7.01307e-06
7.91316e-05
7.76482e-06
7.94121e-05
8.52759e-06
7.97349e-05
9.30042e-06
8.01045e-05
1.00814e-05
8.05256e-05
1.08675e-05
8.10031e-05
1.16538e-05
8.1541e-05
1.24327e-05
8.21427e-05
1.319e-05
8.28088e-05
1.3895e-05
1.44713e-05
7.78937e-05
5.93904e-07
7.79299e-05
1.34695e-06
7.7983e-05
1.9721e-06
7.80548e-05
2.63766e-06
7.81465e-05
3.31878e-06
7.82595e-05
4.00105e-06
7.83954e-05
4.68801e-06
7.85563e-05
5.38222e-06
7.87446e-05
6.08427e-06
7.89632e-05
6.79443e-06
7.92154e-05
7.51267e-06
7.95045e-05
8.23845e-06
7.98344e-05
8.9705e-06
8.02091e-05
9.70678e-06
8.06324e-05
1.04441e-05
8.11082e-05
1.1178e-05
8.164e-05
1.19009e-05
8.22302e-05
1.25999e-05
8.28787e-05
1.32465e-05
1.37702e-05
7.79048e-05
5.77005e-07
7.79432e-05
1.30861e-06
7.79995e-05
1.91577e-06
7.80755e-05
2.56164e-06
7.81725e-05
3.22181e-06
7.82915e-05
3.88202e-06
7.84341e-05
4.5454e-06
7.86022e-05
5.21415e-06
7.87979e-05
5.88853e-06
7.90239e-05
6.56851e-06
7.92828e-05
7.25378e-06
7.95776e-05
7.94355e-06
7.99118e-05
8.63637e-06
8.02885e-05
9.33009e-06
8.0711e-05
1.00216e-05
8.11826e-05
1.07064e-05
8.17058e-05
1.13777e-05
8.22824e-05
1.20233e-05
8.29118e-05
1.26171e-05
1.30938e-05
7.79154e-05
5.59336e-07
7.79555e-05
1.26851e-06
7.80144e-05
1.85686e-06
7.80938e-05
2.48225e-06
7.81949e-05
3.12074e-06
7.83187e-05
3.75827e-06
7.84664e-05
4.39762e-06
7.86399e-05
5.04065e-06
7.88411e-05
5.68737e-06
7.90721e-05
6.33749e-06
7.93354e-05
6.99048e-06
7.96336e-05
7.64535e-06
7.99694e-05
8.30054e-06
8.03457e-05
8.95384e-06
8.07651e-05
9.60221e-06
8.12301e-05
1.02414e-05
8.17428e-05
1.08649e-05
8.23044e-05
1.14617e-05
8.29138e-05
1.20076e-05
1.24424e-05
7.79256e-05
5.41072e-07
7.79671e-05
1.22705e-06
7.80279e-05
1.79598e-06
7.81099e-05
2.40028e-06
7.82141e-05
3.01656e-06
7.83414e-05
3.631e-06
7.84929e-05
4.24606e-06
7.86703e-05
4.86332e-06
7.88751e-05
5.48256e-06
7.91093e-05
6.10328e-06
7.9375e-05
6.72479e-06
7.96744e-05
7.34595e-06
8.00098e-05
7.96514e-06
8.03835e-05
8.58013e-06
8.07977e-05
9.18797e-06
8.12545e-05
9.78464e-06
8.17552e-05
1.03642e-05
8.23007e-05
1.09163e-05
8.28895e-05
1.14188e-05
1.18161e-05
7.79353e-05
5.22368e-07