/*--------------------------------*- C++ -*----------------------------------*\
  =========                 |
  \\      /  F ield         | OpenFOAM: The Open Source CFD Toolbox
   \\    /   O peration     | Website:  https://openfoam.org
    \\  /    A nd           | Version:  6
     \\/     M anipulation  |
\*---------------------------------------------------------------------------*/
FoamFile
{
    version     2.0;
    format      ascii;
    class       volVectorField;
    location    "0.35";
    object      U;
}
// * * * * * * * * * * * * * * * * * * * * * * * * * * * * * * * * * * * * * //

dimensions      [0 1 -1 0 0 0 0];

internalField   nonuniform List<vector> 
5600
(
(1.03334 0.000527422 3.75603e-19)
(1.00795 0.00108122 -6.44607e-18)
(0.996973 0.00152024 6.43133e-18)
(0.996054 0.0019477 0)
(0.994492 0.0024275 0)
(0.991059 0.00296222 0)
(0.986755 0.00353556 -1.19963e-17)
(0.981832 0.00414809 1.19691e-17)
(0.97617 0.00481037 0)
(0.969663 0.0055332 0)
(0.96224 0.00632727 0)
(0.953821 0.00720504 0)
(0.944303 0.00818129 0)
(0.933567 0.00927294 -2.36175e-17)
(0.921471 0.0104985 2.35646e-17)
(0.907853 0.0118763 -4.7025e-17)
(0.892531 0.0134197 4.69201e-17)
(0.875315 0.0151257 0)
(0.856015 0.0169529 -3.64947e-19)
(0.83449 0.0187671 0)
(1.03423 0.001355 -3.70366e-19)
(1.00783 0.00307022 6.3568e-18)
(0.996918 0.00442293 -6.34462e-18)
(0.996165 0.00575893 0)
(0.994608 0.00720398 0)
(0.991174 0.00876348 2.44914e-17)
(0.986905 0.0104252 8.45434e-23)
(0.982038 0.0122021 -7.39241e-19)
(0.976445 0.0141209 1.11678e-22)
(0.970025 0.0162103 -2.35691e-17)
(0.96271 0.0185015 0)
(0.954424 0.021031 -4.76942e-17)
(0.945071 0.0238412 4.68715e-17)
(0.934537 0.0269806 0)
(0.922691 0.0305017 0)
(0.90938 0.0344557 0)
(0.894433 0.0388786 0)
(0.877668 0.0437589 -4.64344e-17)
(0.858896 0.0489772 4.67093e-17)
(0.837887 0.0541906 4.55689e-17)
(1.03572 0.00206263 0)
(1.00802 0.00506881 0)
(0.996837 0.00735555 0)
(0.996267 0.00954628 0)
(0.994813 0.0119259 2.34694e-17)
(0.991446 0.0144959 -2.4167e-17)
(0.987276 0.0172301 -1.4625e-18)
(0.982543 0.0201523 -7.30171e-19)
(0.977114 0.0233071 2.33312e-17)
(0.970894 0.0267412 -2.18407e-17)
(0.963824 0.0305051 -1.45391e-18)
(0.955837 0.0346582 4.7183e-17)
(0.946848 0.0392693 -4.78383e-17)
(0.936758 0.0444166 1.44752e-18)
(0.925451 0.0501843 4.62533e-17)
(0.912795 0.0566541 -9.38143e-17)
(0.898636 0.0638826 -1.44174e-18)
(0.882805 0.0718507 4.60506e-17)
(0.865112 0.0803658 -1.43699e-18)
(0.845248 0.0888948 -7.17827e-19)
(1.03784 0.0028294 0)
(1.00839 0.00701057 -1.448e-18)
(0.996751 0.010182 0)
(0.996413 0.0132189 0)
(0.995144 0.0165145 0)
(0.991911 0.0200671 0)
(0.987913 0.0238417 1.44099e-18)
(0.983401 0.027873 2.44728e-17)
(0.978243 0.0322223 -2.30106e-17)
(0.972351 0.0369529 -1.43676e-18)
(0.965677 0.0421335 2.87071e-18)
(0.958169 0.0478439 0)
(0.949759 0.0541772 -4.44092e-17)
(0.94037 0.061238 4.43655e-17)
(0.92991 0.0691392 4.57523e-17)
(0.918275 0.0779896 -4.57071e-17)
(0.90534 0.0878655 9.27529e-17)
(0.890959 0.0987435 -9.12357e-17)
(0.874955 0.110368 1.42418e-18)
(0.856967 0.122049 1.42338e-18)
(1.04057 0.00360049 -5.6236e-18)
(1.00889 0.0088871 7.10036e-18)
(0.996663 0.0128838 -1.13566e-17)
(0.996632 0.0167255 -1.13519e-17)
(0.995619 0.0208964 2.26943e-17)
(0.992583 0.025386 2.26849e-17)
(0.988828 0.0301503 -2.26754e-17)
(0.984627 0.0352333 1.41662e-18)
(0.979846 0.0407109 1.41603e-18)
(0.974406 0.0466605 4.52942e-17)
(0.968276 0.0531663 -9.05502e-17)
(0.961423 0.060326 1.41397e-18)
(0.953802 0.0682524 4.66504e-17)
(0.945361 0.0770724 1.41305e-18)
(0.936043 0.0869221 -4.37863e-17)
(0.925781 0.0979326 4.80029e-17)
(0.914489 0.110196 1.41124e-18)
(0.902052 0.123686 0)
(0.888328 0.138091 1.41003e-18)
(0.872937 0.152585 1.40983e-18)
(1.0439 0.00435766 5.50305e-18)
(1.0095 0.0106795 -5.5598e-18)
(0.996572 0.0154278 1.39034e-18)
(0.996935 0.020013 0)
(0.99625 0.0250056 2.22547e-17)
(0.993465 0.0303762 -2.22593e-17)
(0.990022 0.0360668 1.39149e-18)
(0.986214 0.0421287 -4.73207e-17)
(0.981907 0.0486501 -2.78429e-18)
(0.977034 0.0557197 8.91102e-17)
(0.971584 0.0634338 -4.73492e-17)
(0.965545 0.0719036 -1.39291e-18)
(0.9589 0.0812572 -4.73682e-17)
(0.95163 0.0916378 -4.59843e-17)
(0.943717 0.103198 8.78041e-17)
(0.935139 0.116083 8.64276e-17)
(0.925857 0.130397 -9.06262e-17)
(0.915796 0.146109 8.78549e-17)
(0.904865 0.162858 -1.79926e-16)
(0.892693 0.179706 8.79015e-17)
(1.04779 0.00510369 0)
(1.01017 0.0123568 0)
(0.996469 0.0177587 -1.35932e-18)
(0.997336 0.0230218 2.17684e-17)
(0.997045 0.0287804 -2.17876e-17)
(0.994558 0.0349691 -1.36292e-18)
(0.991483 0.0415119 -1.36414e-18)
(0.98814 0.0484663 1.36534e-18)
(0.984391 0.0559303 1.36655e-18)
(0.980182 0.0640013 0)
(0.975527 0.0727835 4.51754e-17)
(0.970438 0.0823975 1.91667e-22)
(0.964927 0.0929807 -4.25118e-17)
(0.959012 0.104686 -8.6471e-17)
(0.952719 0.117673 1.7584e-16)
(0.946075 0.132097 -8.66217e-17)
(0.939095 0.148063 8.80737e-17)
(0.93175 0.165539 -8.67725e-17)
(0.924009 0.184127 -8.82267e-17)
(0.915538 0.202805 8.69274e-17)
(1.05223 0.0058934 0)
(1.01082 0.0138621 1.32466e-18)
(0.996338 0.0197893 -2.12298e-17)
(0.997853 0.0256957 2.2593e-17)
(0.998014 0.0321739 -2.12981e-17)
(0.995852 0.0391094 2.39989e-17)
(0.99319 0.0464188 0)
(0.990369 0.0541655 1.33757e-18)
(0.987245 0.0624547 0)
(0.98378 0.0713887 -1.34189e-18)
(0.980011 0.0810766 4.301e-17)
(0.975976 0.0916426 -4.30793e-17)
(0.971718 0.103227 -8.62979e-17)
(0.967294 0.115985 8.50864e-17)
(0.962774 0.130076 0)
(0.95824 0.145653 0)
(0.953762 0.162822 8.68564e-17)
(0.949365 0.181551 1.83353e-22)
(0.945089 0.201427 -8.71365e-17)
(0.940652 0.221414 8.86352e-17)
(1.05716 0.00701839 -4.46535e-18)
(1.01125 0.0150059 4.51548e-18)
(0.996181 0.0213349 0)
(0.998544 0.0280253 -1.94459e-18)
(0.999154 0.0352272 -2.07914e-17)
(0.997318 0.0428373 -2.21435e-17)
(0.995105 0.050833 8.35626e-17)
(0.992852 0.0592835 -4.31899e-17)
(0.990402 0.0682923 -4.19813e-17)
(0.987736 0.0779646 4.33969e-17)
(0.984914 0.0884107 -8.43658e-17)
(0.982 0.0997531 1.69137e-16)
(0.979067 0.112128 1.89691e-22)
(0.976208 0.12568 -8.49759e-17)
(0.973538 0.140561 0)
(0.971196 0.15691 8.53866e-17)
(0.969312 0.174827 -1.71186e-16)
(0.967976 0.19429 8.57998e-17)
(0.967342 0.214898 0)
(0.967231 0.235615 0)
(1.06258 0.00887945 -5.57817e-18)
(1.0108 0.0153131 4.38896e-18)
(0.996205 0.0221264 0)
(0.999651 0.0300548 2.08245e-17)
(1.00049 0.0380367 -2.02577e-17)
(0.998946 0.0462331 -4.06446e-17)
(0.997237 0.0548418 -5.89664e-23)
(0.995596 0.0639314 8.18104e-17)
(0.993856 0.0735862 -8.20731e-17)
(0.992027 0.0839127 4.11685e-17)
(0.990188 0.0950222 -8.26025e-17)
(0.988423 0.107032 8.28692e-17)
(0.986831 0.120068 -8.31375e-17)
(0.985537 0.134259 8.34071e-17)
(0.984697 0.149732 8.36781e-17)
(0.9845 0.166599 -8.39505e-17)
(0.985147 0.184933 0)
(0.986828 0.204736 -8.44991e-17)
(0.989829 0.225749 8.4776e-17)
(0.994094 0.24696 8.50307e-17)
(0.80749 0.0203461 0)
(0.770829 0.0225153 0)
(0.726805 0.0250038 4.2486e-17)
(0.6734 0.0278567 -2.30613e-17)
(0.607938 0.0310712 -2.52178e-17)
(0.527037 0.0344828 4.17185e-17)
(0.427148 0.0375296 -1.54942e-17)
(0.304941 0.0388879 3.4965e-17)
(0.159469 0.035927 0)
(0.0444716 0.0202922 0)
(0.811629 0.0590449 -1.84351e-17)
(0.775785 0.0656523 -5.94191e-17)
(0.732561 0.0732584 -2.13704e-17)
(0.680088 0.0819986 2.31989e-17)
(0.615685 0.0918693 2.53642e-17)
(0.535928 0.102365 -5.59362e-17)
(0.43714 0.111792 4.67285e-17)
(0.315741 0.116096 -8.78278e-17)
(0.169777 0.106962 -1.00579e-17)
(0.0505482 0.0606163 6.43021e-17)
(0.820508 0.0968864 1.85112e-17)
(0.786175 0.107779 -1.98884e-17)
(0.744497 0.120342 4.29199e-17)
(0.693827 0.134775 4.6598e-17)
(0.631477 0.151066 -5.09565e-17)
(0.553933 0.168367 -2.80974e-17)
(0.457257 0.183876 3.13049e-17)
(0.337236 0.190846 -5.29644e-17)
(0.190267 0.175236 8.08985e-17)
(0.0627105 0.099475 -1.52885e-16)
(0.834532 0.132996 3.70489e-17)
(0.802281 0.148018 0)
(0.762764 0.165337 0)
(0.71465 0.18518 -4.66331e-17)
(0.655213 0.207533 5.09947e-17)
(0.580801 0.231195 1.95943e-21)
(0.487089 0.252276 0)
(0.368899 0.261439 7.06825e-17)
(0.220365 0.239312 -6.07256e-17)
(0.0805699 0.135691 1.88339e-16)
(0.853507 0.166123 -3.69534e-17)
(0.823811 0.184985 0)
(0.786974 0.206745 8.56633e-17)
(0.742056 0.231614 0)
(0.686264 0.259566 5.08386e-17)
(0.615758 0.289053 5.60617e-17)
(0.525715 0.315118 0)
(0.409715 0.325974 1.40862e-16)
(0.259037 0.297421 -2.01666e-17)
(0.103454 0.168178 -7.0341e-17)
(0.876824 0.195355 1.85211e-21)
(0.85006 0.217664 -1.57829e-16)
(0.816323 0.243453 -2.47013e-21)
(0.775129 0.272861 0)
(0.723577 0.30585 -5.05051e-17)
(0.657595 0.34052 -5.5673e-17)
(0.571764 0.370882 0)
(0.458204 0.38286 -1.39781e-16)
(0.304833 0.348 -1.59974e-16)
(0.130448 0.196 2.32344e-17)
(0.903611 0.220064 6.87914e-22)
(0.880037 0.245385 1.01469e-21)
(0.849716 0.274737 1.68637e-16)
(0.812647 0.308147 -1.18334e-21)
(0.765771 0.345548 -9.99741e-17)
(0.704749 0.384675 -1.10161e-16)
(0.623492 0.418537 -3.06527e-17)
(0.512492 0.430951 3.45312e-17)
(0.355947 0.389869 1.18472e-16)
(0.160409 0.218418 2.2916e-16)
(0.932861 0.239923 -1.61382e-21)
(0.912546 0.267862 7.72064e-17)
(0.885821 0.300311 -1.66482e-16)
(0.853132 0.337178 -4.51487e-17)
(0.811183 0.37834 2.46542e-16)
(0.755368 0.421145 1.0861e-16)
(0.678881 0.457626 -1.2079e-16)
(0.570478 0.469702 0)
(0.410398 0.42244 3.88317e-17)
(0.192056 0.23502 -4.05098e-16)
(0.963511 0.255023 -1.1317e-21)
(0.945995 0.285188 -7.60106e-17)
(0.922862 0.320327 3.70427e-21)
(0.894669 0.360167 -8.88234e-17)
(0.85779 0.404496 9.69551e-17)
(0.807413 0.450251 5.33578e-17)
(0.735976 0.488517 5.9303e-17)
(0.630345 0.499527 -3.33408e-17)
(0.466465 0.446097 3.80377e-17)
(0.224131 0.245904 1.76119e-16)
(0.993577 0.266866 -6.95398e-17)
(0.977782 0.29881 -7.46097e-17)
(0.958405 0.336285 8.03792e-17)
(0.934875 0.378634 8.70981e-17)
(0.903359 0.425428 -1.90062e-16)
(0.858876 0.473111 0)
(0.7929 0.511863 0)
(0.690038 0.520598 -3.25908e-17)
(0.521601 0.460768 3.71322e-17)
(0.254674 0.250839 0)
(1.02176 0.285846 6.80095e-17)
(1.00686 0.318767 7.30481e-17)
(0.991045 0.356594 0)
(0.971367 0.399151 -8.54397e-17)
(0.944246 0.44521 0)
(0.904291 0.490486 -1.02799e-16)
(0.841877 0.524655 -5.71777e-17)
(0.739605 0.526795 -6.43678e-17)
(0.565702 0.459853 -1.4711e-16)
(0.278223 0.246463 1.70663e-16)
(1.0527 0.303 1.51141e-21)
(1.04122 0.336404 -1.48561e-16)
(1.02883 0.37369 2.083e-21)
(1.01252 0.415132 8.69241e-17)
(0.988686 0.458633 0)
(0.951227 0.499132 1.04655e-16)
(0.889332 0.525939 0)
(0.784018 0.518819 1.31198e-16)
(0.601999 0.443544 1.44173e-20)
(0.295607 0.232457 -1.74161e-16)
(1.08508 0.31597 7.01344e-17)
(1.07744 0.348888 -7.53478e-17)
(1.06832 0.384974 2.43833e-16)
(1.05494 0.42433 -8.82086e-17)
(1.03346 0.46416 -9.64074e-17)
(0.997096 0.498776 -5.31306e-17)
(0.933966 0.517319 2.25861e-21)
(0.823895 0.500522 6.66682e-17)
(0.632809 0.417462 2.66978e-16)
(0.308741 0.212842 4.43095e-17)
(1.1185 0.323973 -1.41939e-16)
(1.11442 0.355684 0)
(1.10821 0.389842 -4.22736e-21)
(1.09711 0.426172 8.92963e-17)
(1.077 0.461333 2.44064e-16)
(1.04037 0.489229 5.38122e-17)
(0.974482 0.499099 1.1987e-16)
(0.858294 0.472999 -1.01368e-16)
(0.65749 0.383725 -1.93437e-16)
(0.317526 0.18947 1.79884e-16)
(1.15225 0.326709 7.1642e-17)
(1.15122 0.356563 7.69749e-17)
(1.14731 0.388077 -1.66122e-16)
(1.13765 0.420519 -4.50904e-17)
(1.11766 0.450141 -1.97208e-16)
(1.07923 0.470642 -1.63104e-16)
(1.0089 0.471664 -2.42279e-16)
(0.885211 0.436985 1.36647e-16)
(0.674327 0.343578 0)
(0.321352 0.163498 -2.04816e-16)
(1.18533 0.323963 1.08199e-16)
(1.18669 0.351379 0)
(1.18427 0.379618 0)
(1.17496 0.407466 0)
(1.15372 0.430905 0)
(1.11184 0.443638 1.09553e-16)
(1.03542 0.435997 1.22077e-16)
(0.903062 0.393843 0)
(0.682243 0.298661 0)
(0.320014 0.136113 -9.18232e-17)
(1.21669 0.315745 -3.62199e-17)
(1.21963 0.340228 -8.57565e-22)
(1.2177 0.364671 -4.20024e-17)
(1.20752 0.387403 4.5608e-17)
(1.18352 0.404283 -4.98831e-17)
(1.13657 0.40922 1.37569e-16)
(1.05262 0.393499 -3.06645e-17)
(0.910826 0.345336 6.92066e-17)
(0.680826 0.250849 -1.98301e-17)
(0.313673 0.108487 9.23343e-17)
(1.24527 0.302296 7.25542e-17)
(1.24884 0.323464 -3.89802e-17)
(1.24626 0.343725 0)
(1.23386 0.361018 -4.56844e-17)
(1.20561 0.371235 0)
(1.1521 0.368682 -5.51234e-17)
(1.05947 0.345816 -3.0717e-17)
(0.908012 0.293381 3.46656e-17)
(0.670203 0.202032 0)
(0.302761 0.0816822 -1.15649e-17)
(1.2701 0.28406 -5.43555e-17)
(1.27325 0.301663 3.89364e-17)
(1.26885 0.317504 0)
(1.2529 0.329233 0)
(1.21904 0.332929 4.99069e-17)
(1.15779 0.323476 -2.75283e-17)
(1.0558 0.294688 -3.06793e-17)
(0.894984 0.239906 -6.92493e-17)
(0.65118 0.154018 3.96853e-17)
(0.287965 0.0566355 -5.19688e-17)
(1.29044 0.261665 5.41528e-17)
(1.29225 0.275476 -5.66805e-22)
(1.28494 0.286679 -2.09293e-17)
(1.26422 0.29278 0)
(1.2235 0.290235 -2.4854e-17)
(1.15348 0.274698 -1.37066e-17)
(1.0417 0.241511 3.8188e-17)
(0.872116 0.186576 8.61809e-18)
(0.624347 0.108464 -4.44417e-17)
(0.26973 0.0341597 5.17198e-17)
(1.03362 0.261502 -4.18663e-16)
(1.06247 0.277123 1.03559e-16)
(1.09189 0.289245 0)
(1.1222 0.297105 1.02435e-16)
(1.15302 0.300455 -3.11469e-23)
(1.18345 0.299103 -1.56611e-18)
(1.21259 0.293003 7.79088e-19)
(1.23957 0.282298 -5.00406e-17)
(1.26356 0.267293 4.98828e-17)
(1.28375 0.248546 -2.4694e-17)
(1.04256 0.248322 2.08786e-16)
(1.06917 0.261324 0)
(1.09619 0.271564 0)
(1.12397 0.278288 1.00695e-16)
(1.15238 0.281208 1.57434e-18)
(1.18059 0.280149 -7.82303e-19)
(1.20784 0.275049 7.78399e-19)
(1.23336 0.265996 4.88411e-17)
(1.25647 0.253207 -4.94635e-17)
(1.27629 0.237181 2.46791e-17)
(1.05127 0.237228 0)
(1.07533 0.247988 -1.03194e-16)
(1.09989 0.25628 1.02258e-16)
(1.12517 0.261679 -1.01451e-16)
(1.15116 0.263909 0)
(1.17713 0.262808 -7.82606e-19)
(1.20241 0.258315 -9.89196e-17)
(1.22636 0.250481 0)
(1.24843 0.239462 0)
(1.26768 0.225694 -2.47068e-17)
(1.05904 0.22664 0)
(1.08096 0.235409 1.06563e-21)
(1.10325 0.242012 -1.02175e-16)
(1.12617 0.246228 1.01412e-16)
(1.1498 0.24781 7.87178e-19)
(1.17354 0.246615 -1.00995e-16)
(1.19682 0.242582 -3.0748e-22)
(1.21912 0.235736 0)
(1.23999 0.226186 0)
(1.2585 0.2143 0)
(1.06552 0.216403 -1.038e-16)
(1.08563 0.223554 2.05841e-16)
(1.10595 0.22877 7.97574e-19)
(1.12678 0.231973 -1.02166e-16)
(1.14826 0.232968 -7.87188e-19)
(1.16991 0.231639 -1.00246e-16)
(1.19127 0.227937 1.50512e-16)
(1.21191 0.22187 -3.88604e-19)
(1.2315 0.213517 -4.92267e-17)
(1.24913 0.203183 -2.47631e-17)
(1.07077 0.206467 2.0721e-16)
(1.08928 0.212347 -1.02784e-16)
(1.10789 0.216464 1.02007e-16)
(1.12689 0.218839 1.00544e-16)
(1.14647 0.219332 1.02337e-16)
(1.16622 0.21786 9.94967e-17)
(1.1858 0.214392 -4.99416e-17)
(1.20486 0.208933 -3.88931e-19)
(1.22315 0.201541 3.87701e-19)
(1.23983 0.192476 2.47909e-17)
(1.07492 0.196819 -1.03814e-16)
(1.09198 0.201683 -1.02246e-16)
(1.10908 0.204938 -1.01924e-16)
(1.1265 0.206659 -1.01298e-16)
(1.1444 0.20675 -9.99766e-17)
(1.16247 0.20516 9.87471e-17)
(1.18044 0.201874 -4.91917e-17)
(1.19803 0.196899 0)
(1.21506 0.190287 9.94294e-17)
(1.23075 0.182262 0)
(1.07808 0.18747 0)
(1.09384 0.191508 1.02512e-16)
(1.1096 0.194085 -1.0184e-16)
(1.12562 0.195298 7.91085e-19)
(1.14206 0.195085 -1.02339e-16)
(1.15865 0.193414 -1.00349e-16)
(1.17518 0.190287 5.07846e-17)
(1.19142 0.185716 -4.98676e-17)
(1.20727 0.179747 -9.95301e-17)
(1.22199 0.172579 0)
(1.08037 0.178434 -1.03021e-16)
(1.09495 0.181796 0)
(1.10952 0.183837 1.01757e-16)
(1.12432 0.184661 1.02013e-16)
(1.13946 0.184226 7.91709e-23)
(1.15475 0.182515 9.95987e-17)
(1.17 0.179539 0)
(1.18503 0.175315 4.99094e-17)
(1.19978 0.169888 5.001e-17)
(1.21356 0.163439 -2.50698e-17)
(1.08191 0.169722 1.02829e-16)
(1.09542 0.172529 -1.02241e-16)
(1.10892 0.174147 1.01673e-16)
(1.12263 0.174674 -1.00394e-16)
(1.13664 0.174083 1.99959e-16)
(1.15078 0.172368 -9.88481e-17)
(1.16489 0.169543 -7.82275e-19)
(1.17884 0.165628 -3.90242e-19)
(1.19258 0.160668 -4.94765e-17)
(1.20549 0.15483 2.49036e-17)
(1.08281 0.16134 0)
(1.09535 0.16369 1.02107e-16)
(1.10789 0.164973 -1.0159e-16)
(1.12063 0.165277 -7.90196e-19)
(1.13363 0.164583 -9.91934e-17)
(1.14675 0.162891 -7.84782e-19)
(1.15985 0.160219 -7.82745e-19)
(1.17283 0.156586 7.81154e-19)
(1.18565 0.152038 4.99165e-17)
(1.19776 0.146729 2.4932e-17)
(1.08315 0.153291 1.02844e-16)
(1.09481 0.155265 -3.98332e-19)
(1.10649 0.156281 0)
(1.11836 0.156418 0)
(1.13047 0.155662 7.8725e-19)
(1.14268 0.154016 -5.18128e-17)
(1.15489 0.151499 1.16618e-23)
(1.167 0.148129 5.04265e-17)
(1.17899 0.14395 3.90371e-19)
(1.19036 0.139105 -2.49602e-17)
(1.08303 0.145571 -1.02253e-16)
(1.09389 0.147237 -1.01838e-16)
(1.10479 0.148042 -1.01424e-16)
(1.11588 0.148056 -7.89602e-19)
(1.12719 0.147269 1.15645e-23)
(1.1386 0.145686 5.02598e-17)
(1.15001 0.143323 7.83723e-19)
(1.16134 0.140199 1.09238e-22)
(1.17258 0.136355 0)
(1.18327 0.131925 0)
(1.08251 0.138176 -1.02461e-16)
(1.09266 0.139589 2.03805e-16)
(1.10286 0.140228 1.01341e-16)
(1.11325 0.140154 0)
(1.12383 0.139359 -9.99832e-17)
(1.13452 0.13785 4.94912e-17)
(1.14521 0.13564 0)
(1.15585 0.132749 -5.05114e-17)
(1.16641 0.129212 -2.46432e-17)
(1.17648 0.125155 0)
(1.08167 0.1311 1.02271e-16)
(1.09117 0.132304 -1.01967e-16)
(1.10073 0.132813 0)
(1.11049 0.132678 1.00204e-16)
(1.12043 0.131893 1.00771e-16)
(1.13046 0.130465 -1.00588e-16)
(1.14052 0.128406 -4.94351e-17)
(1.15052 0.125734 0)
(1.16047 0.122481 2.50598e-17)
(1.16998 0.118763 0)
(1.08056 0.124331 1.01683e-16)
(1.08948 0.125366 0)
(1.09847 0.125775 0)
(1.10765 0.125599 -1.00167e-16)
(1.11701 0.124837 -9.59268e-24)
(1.12645 0.123494 4.87386e-17)
(1.13593 0.121582 5.10359e-17)
(1.14536 0.119116 -3.9222e-19)
(1.15476 0.116126 1.95982e-19)
(1.16375 0.112719 1.95893e-19)
(1.07924 0.117862 -2.02988e-16)
(1.08763 0.118758 1.01304e-16)
(1.0961 0.119089 7.89782e-19)
(1.10477 0.11889 -7.88419e-19)
(1.11359 0.11816 -5.03863e-17)
(1.12251 0.116904 0)
(1.13145 0.115134 0)
(1.14037 0.112862 5.02468e-17)
(1.14926 0.110116 0)
(1.15778 0.106994 0)
(1.07775 0.111679 1.01702e-16)
(1.08566 0.112462 -1.01566e-16)
(1.09366 0.112735 7.89137e-19)
(1.10186 0.112525 -1.02455e-16)
(1.11021 0.111833 5.11739e-17)
(1.11864 0.110665 0)
(1.12711 0.109031 -7.86133e-19)
(1.13556 0.106941 -4.98962e-17)
(1.14399 0.104422 1.96381e-19)
(1.15208 0.101562 1.9634e-19)
(1.07613 0.105772 -1.01513e-16)
(1.08361 0.106464 3.94682e-19)
(1.09119 0.106692 -1.00927e-16)
(1.09895 0.106482 1.00841e-16)
(1.10687 0.105833 7.87291e-19)
(1.11486 0.104752 -7.86908e-19)
(1.1229 0.103247 4.95572e-17)
(1.13092 0.101328 7.86434e-19)
(1.13892 0.0990188 0)
(1.14663 0.0964021 0)
(1.07441 0.100128 -3.94012e-19)
(1.0815 0.100746 1.013e-16)
(1.0887 0.100943 1.00845e-16)
(1.09607 0.100739 -1.0159e-16)
(1.10359 0.100135 5.11744e-17)
(1.11119 0.0991384 0)
(1.11882 0.0977565 -5.03749e-17)
(1.12645 0.0959979 -3.93546e-19)
(1.13408 0.0938839 3.93559e-19)
(1.14142 0.0914912 0)
(1.07264 0.0947347 3.93761e-19)
(1.07937 0.0952928 -1.01167e-16)
(1.08621 0.0954678 -1.00762e-16)
(1.09324 0.0952757 1.00764e-16)
(1.10039 0.094719 -1.00775e-16)
(1.10762 0.093804 0)
(1.1149 0.0925381 0)
(1.12217 0.090929 -3.93878e-19)
(1.12944 0.0889963 -2.50164e-17)
(1.13645 0.0868105 2.54148e-17)
(1.07082 0.0895805 1.00166e-16)
(1.07723 0.0900903 -1.00249e-16)
(1.08376 0.0902507 1.0068e-16)
(1.09045 0.0900743 -5.11496e-17)
(1.09727 0.0895647 7.87322e-19)
(1.10417 0.088728 0)
(1.11112 0.0875714 -5.04371e-17)
(1.11806 0.0861018 -3.94211e-19)
(1.12501 0.0843371 2.56335e-17)
(1.13172 0.0823425 -2.52467e-17)
(1.06898 0.0846529 0)
(1.0751 0.0851238 1.0051e-16)
(1.08134 0.0852751 -1.00597e-16)
(1.08774 0.0851172 5.11301e-17)
(1.09426 0.084654 4.96004e-17)
(1.10085 0.083892 0)
(1.10749 0.0828379 4.96796e-17)
(1.11414 0.0814981 3.94551e-19)
(1.12078 0.079889 1.97385e-19)
(1.12722 0.078071 1.97467e-19)
(1.06715 0.07994 3.91359e-19)
(1.073 0.0803794 -3.92107e-19)
(1.07897 0.0805258 1.00515e-16)
(1.0851 0.0803879 7.86313e-19)
(1.09134 0.07997 -5.03878e-17)
(1.09766 0.0792788 4.96584e-17)
(1.10402 0.0783205 -4.97102e-17)
(1.11039 0.0771013 2.40877e-17)
(1.11676 0.0756363 5.92754e-19)
(1.12294 0.0739813 -1.97693e-19)
(1.06533 0.0754301 9.96134e-17)
(1.07094 0.0758438 3.91594e-19)
(1.07667 0.0759884 0)
(1.08255 0.0758712 0)
(1.08853 0.075497 1.23139e-23)
(1.09459 0.0748724 -5.04635e-17)
(1.1007 0.0740035 1.00271e-16)
(1.10681 0.0728961 3.95236e-19)
(1.11293 0.0715643 1.97789e-19)
(1.11888 0.0700596 1.28648e-17)
(1.06355 0.0711117 -9.94304e-17)
(1.06893 0.0715043 -3.91083e-19)
(1.07444 0.0716493 -5.01752e-17)
(1.08009 0.0715529 0)
(1.08584 0.0712203 5.0388e-17)
(1.09167 0.0706581 0)
(1.09753 0.0698724 -4.97716e-17)
(1.10341 0.0688685 -2.65018e-17)
(1.1093 0.0676596 3.9598e-19)
(1.11503 0.0662935 1.46256e-23)
(1.0618 0.0669739 -1.00026e-16)
(1.06699 0.0673487 3.90573e-19)
(1.07228 0.0674954 5.01342e-17)
(1.07772 0.0674194 -7.85409e-19)
(1.08326 0.067126 7.87315e-19)
(1.08887 0.0666221 0)
(1.09452 0.0659135 -7.9051e-19)
(1.10019 0.0650053 3.95888e-19)
(1.10586 0.0639098 1.98195e-19)
(1.11139 0.0626713 -1.24977e-17)
(1.0601 0.0630058 9.90658e-17)
(1.0651 0.0633654 3.90064e-19)
(1.07021 0.0635145 -7.82701e-19)
(1.07546 0.063458 1.57022e-18)
(1.0808 0.0632014 -7.87315e-19)
(1.08621 0.0627517 0)
(1.09167 0.0621143 -2.5312e-17)
(1.09713 0.0612944 0)
(1.10261 0.0603033 0)
(1.10795 0.0591823 1.27107e-17)
(1.05846 0.0591971 4.9636e-17)
(1.06329 0.0595432 0)
(1.06823 0.059695 0)
(1.0733 0.0596568 -7.84805e-19)
(1.07846 0.0594344 -4.96007e-17)
(1.08369 0.0590347 0)
(1.08896 0.0584631 2.61191e-17)
(1.09424 0.0577244 -1.18967e-18)
(1.09953 0.0568295 3.97201e-19)
(1.10471 0.0558164 -1.27254e-17)
(1.05689 0.0555377 -9.94774e-17)
(1.06156 0.0558715 3.89048e-19)
(1.06634 0.0560258 7.81419e-19)
(1.07125 0.0560045 -5.17773e-17)
(1.07624 0.0558137 1.02351e-16)
(1.0813 0.05546 -7.89813e-19)
(1.0864 0.0549488 2.53432e-17)
(1.09152 0.0542849 -3.96891e-19)
(1.09664 0.0534783 1.98806e-19)
(1.10166 0.0525643 1.99064e-19)
(1.05538 0.0520181 4.90682e-17)
(1.0599 0.0523402 3.88541e-19)
(1.06454 0.0524964 0)
(1.0693 0.0524905 4.94048e-17)
(1.07414 0.0523285 -4.96006e-17)
(1.07905 0.052017 2.52824e-17)
(1.08399 0.0515613 4.95052e-24)
(1.08895 0.050966 -3.97228e-19)
(1.09392 0.0502404 3.98018e-19)
(1.09879 0.0494174 0)
(1.05394 0.0486288 -3.85657e-19)
(1.05833 0.0489396 3.88036e-19)
(1.06284 0.049097 0)
(1.06746 0.0491048 -5.01696e-17)
(1.07216 0.0489689 7.87307e-19)
(1.07692 0.0486959 -5.13719e-17)
(1.08172 0.048291 -2.53745e-17)
(1.08654 0.0477584 -2.58418e-17)
(1.09136 0.0471072 1.99215e-19)
(1.0961 0.0463675 1.99525e-19)
(1.05257 0.045361 -4.96591e-17)
(1.05685 0.0456603 4.99914e-17)
(1.06123 0.0458181 0)
(1.06572 0.0458377 5.09337e-17)
(1.0703 0.0457253 -7.87309e-19)
(1.07493 0.0454873 2.52992e-17)
(1.0796 0.0451287 0)
(1.08428 0.0446536 2.5068e-17)
(1.08898 0.0440703 5.98257e-19)
(1.09359 0.0434071 -1.99756e-19)
(1.05128 0.042206 4.88001e-17)
(1.05545 0.0424937 3.86995e-19)
(1.05972 0.0426506 7.7886e-19)
(1.06409 0.0426804 -7.83294e-19)
(1.06855 0.042589 0)
(1.07306 0.0423825 2.53076e-17)
(1.07761 0.042066 -2.61998e-17)
(1.08217 0.0416433 2.58858e-17)
(1.08675 0.0411223 1.99626e-19)
(1.09125 0.0405289 1.29992e-17)
(1.05006 0.0391556 -4.90948e-17)
(1.05413 0.0394311 -4.94751e-17)
(1.0583 0.0395862 0)
(1.06257 0.0396243 0)
(1.06692 0.0395513 0)
(1.07132 0.0393733 -5.0632e-17)
(1.07576 0.0390949 7.94418e-19)
(1.08021 0.03872 -2.6705e-17)
(1.08467 0.0382559 3.99662e-19)
(1.08907 0.0377264 -1.2814e-17)
(1.04893 0.0362018 -3.82819e-19)
(1.0529 0.0364645 3.86024e-19)
(1.05698 0.0366165 -7.77583e-19)
(1.06115 0.0366612 7.82686e-19)
(1.0654 0.0366043 7.87296e-19)
(1.0697 0.0364517 -7.91389e-19)
(1.07404 0.0362079 2.46423e-17)
(1.07839 0.0358765 3.98925e-19)
(1.08275 0.0354643 4.00075e-19)
(1.08706 0.0349933 0)
(1.04787 0.033337 4.85343e-17)
(1.05176 0.0335862 3.85523e-19)
(1.05575 0.0337338 2.48623e-17)
(1.05984 0.0337834 7.82377e-19)
(1.06399 0.0337404 -4.07582e-24)
(1.0682 0.0336104 -7.91651e-19)
(1.07245 0.0333978 0)
(1.07671 0.0331059 0)
(1.08098 0.0327411 1.28156e-17)
(1.08519 0.0323235 0)
(1.04689 0.0305538 3.81465e-19)
(1.05071 0.0307886 -3.85023e-19)
(1.05462 0.0309308 -2.56182e-17)
(1.05863 0.0309836 3.91742e-24)
(1.0627 0.0309524 7.87293e-19)
(1.06683 0.0308424 2.53412e-17)
(1.07099 0.0306578 2.54686e-17)
(1.07516 0.0304019 -3.99601e-19)
(1.07935 0.0300803 -1.2428e-17)
(1.08348 0.0297115 0)
(1.04599 0.0278451 -3.80773e-19)
(1.04974 0.0280648 3.84524e-19)
(1.05358 0.0282002 -2.48215e-17)
(1.05751 0.0282547 0)
(1.06151 0.0282333 0)
(1.06556 0.028141 0)
(1.06965 0.0279816 -2.54844e-17)
(1.07375 0.0277583 -1.31981e-17)
(1.07785 0.0274762 4.01319e-19)
(1.08192 0.0271521 0)
(1.04516 0.025204 -3.80083e-19)
(1.04885 0.0254077 3.84026e-19)
(1.05263 0.0255353 2.40261e-17)
(1.0565 0.02559 3.75264e-24)
(1.06044 0.0255767 7.87283e-19)
(1.06442 0.0254998 0)
(1.06843 0.0253631 7.96876e-19)
(1.07247 0.0251693 1.16082e-17)
(1.0765 0.0249233 -1.24538e-17)
(1.0805 0.02464 0)
(1.04442 0.0226239 0)
(1.04805 0.0228108 2.45458e-17)
(1.05178 0.0229296 2.47807e-17)
(1.05559 0.0229832 -7.81156e-19)
(1.05946 0.0229761 7.87277e-19)
(1.06338 0.0229127 0)
(1.06734 0.0227963 1.35553e-17)
(1.07131 0.0226294 -1.20188e-18)
(1.07528 0.0224163 1.30699e-17)
(1.07922 0.0221705 2.01624e-19)
(1.04375 0.0200984 -3.78709e-19)
(1.04734 0.0202677 -2.4131e-17)
(1.05101 0.0203766 -2.39866e-17)
(1.05477 0.0204278 -3.62047e-24)
(1.05859 0.0204257 -7.87271e-19)
(1.06246 0.020374 0)
(1.06636 0.0202757 -1.35637e-17)
(1.07027 0.0201332 4.00971e-19)
(1.07419 0.0199504 6.03854e-19)
(1.07808 0.019739 -2.0186e-19)
(1.04316 0.0176212 3.78025e-19)
(1.0467 0.0177722 -3.82538e-19)
(1.05034 0.0178703 0)
(1.05405 0.0179181 0)
(1.05782 0.0179195 0)
(1.06164 0.0178779 -1.26915e-17)
(1.06549 0.0177959 -1.27737e-17)
(1.06936 0.0176758 -4.0131e-19)
(1.07323 0.0175207 2.01495e-19)
(1.07707 0.017341 2.02096e-19)
(1.04264 0.0151864 -3.77343e-19)
(1.04615 0.0153183 3.82044e-19)
(1.04975 0.0154048 1.31324e-17)
(1.05342 0.0154483 -1.32641e-17)
(1.05716 0.015452 0)
(1.06094 0.0154191 2.53913e-17)
(1.06474 0.0153518 1.27816e-17)
(1.06857 0.015252 6.02481e-18)
(1.07239 0.0151226 -6.25281e-18)
(1.07619 0.0149722 2.02333e-19)
(1.0422 0.012788 -1.24299e-17)
(1.04568 0.0129003 1.25911e-17)
(1.04925 0.0129745 -1.23497e-17)
(1.05289 0.0130127 2.41779e-17)
(1.05659 0.0130178 7.87251e-19)
(1.06033 0.0129924 -2.53997e-17)
(1.0641 0.0129384 6.39473e-18)
(1.06789 0.0128573 -6.83396e-18)
(1.07168 0.0127516 6.86507e-18)
(1.07544 0.0126285 0)
(1.04184 0.0104202 1.24075e-17)
(1.04529 0.0105123 -3.8106e-19)
(1.04883 0.0105737 -7.71221e-19)
(1.05245 0.010606 -1.16944e-17)
(1.05612 0.0106117 0)
(1.05983 0.0105927 1.2704e-17)
(1.06357 0.0105508 -7.19852e-18)
(1.06733 0.010487 -5.23045e-18)
(1.07108 0.0104033 -6.06373e-19)
(1.07482 0.0103056 2.02809e-19)
(1.04154 0.00807756 -1.20099e-17)
(1.04498 0.00814911 -1.66868e-24)
(1.04851 0.00819715 7.70587e-19)
(1.0521 0.00822303 -1.55863e-18)
(1.05575 0.00822851 1.57447e-18)
(1.05943 0.00821517 -7.14835e-18)
(1.06315 0.00818417 5.60231e-18)
(1.06688 0.00813642 3.62419e-18)
(1.07061 0.00807333 3.84437e-18)
(1.07432 0.0079995 -2.03047e-19)
(1.04133 0.00575436 1.16136e-17)
(1.04475 0.00580504 -1.17823e-17)
(1.04826 0.0058394 0)
(1.05184 0.00585834 0)
(1.05547 0.00586301 7.87223e-19)
(1.05914 0.00585449 5.56165e-18)
(1.06283 0.00583356 -6.40659e-18)
(1.06655 0.00580081 2.82123e-18)
(1.07026 0.00575723 -3.0382e-18)
(1.07395 0.00570602 2.03286e-19)
(1.04118 0.00344512 3.7396e-19)
(1.0446 0.00347456 -3.79586e-19)
(1.0481 0.00349482 3.07729e-18)
(1.05166 0.00350627 -7.78699e-19)
(1.05528 0.00350952 3.14886e-18)
(1.05894 0.00350515 -2.38435e-18)
(1.06263 0.00349356 0)
(1.06632 0.00347506 -4.03377e-19)
(1.07002 0.00345019 4.05518e-19)
(1.0737 0.00342079 -8.14102e-19)
(1.04111 0.00114575 -3.74319e-19)
(1.04452 0.00115463 3.80177e-19)
(1.04802 0.0011609 -3.8547e-18)
(1.05158 0.0011646 7.80733e-19)
(1.05519 0.00116585 -1.57926e-18)
(1.05884 0.00116482 1.59508e-18)
(1.06252 0.00116158 0)
(1.06621 0.00115621 -4.05033e-19)
(1.0699 0.00114884 2.03638e-19)
(1.07358 0.00114 1.0222e-18)
(1.06718 0.00917564 0)
(1.00911 0.0150489 0)
(0.996878 0.0224165 0)
(1.00118 0.0311801 0)
(1.00178 0.0395236 0)
(1.00046 0.0479105 0)
(0.999258 0.0567372 0)
(0.99817 0.0660459 0)
(0.997048 0.0758864 0)
(0.995936 0.0863594 0)
(0.994925 0.0975722 0)
(0.994103 0.109632 0)
(0.99358 0.122647 0)
(0.993491 0.13673 0)
(0.994005 0.151984 0)
(0.995331 0.168494 0)
(0.997722 0.186295 0)
(1.00154 0.205316 0)
(1.0073 0.225227 0)
(1.01477 0.244729 0)
(1.07053 0.00832954 0)
(1.00835 0.0157069 0)
(0.997207 0.0231209 0)
(1.00211 0.0316463 0)
(1.00271 0.0400559 0)
(1.00163 0.0485515 0)
(1.00084 0.057422 0)
(1.00019 0.0667279 0)
(0.999556 0.0765237 0)
(0.999008 0.0868973 0)
(0.998636 0.0979407 0)
(0.998531 0.109744 0)
(0.998805 0.122397 0)
(0.999598 0.135986 0)
(1.00108 0.150587 0)
(1.00346 0.166247 0)
(1.00699 0.182952 0)
(1.01203 0.200538 0)
(1.01895 0.21845 0)
(1.02705 0.23514 0)
(1.07376 0.00770014 0)
(1.00822 0.0161958 0)
(0.997274 0.0236318 0)
(1.00274 0.0319173 0)
(1.00352 0.0403536 0)
(1.00271 0.0489139 0)
(1.00229 0.0577823 0)
(1.00206 0.0670376 0)
(1.00189 0.0767391 0)
(1.00186 0.0869609 0)
(1.00208 0.0977796 0)
(1.00261 0.109269 0)
(1.00359 0.1215 0)
(1.00515 0.134535 0)
(1.00745 0.148421 0)
(1.01068 0.163174 0)
(1.01508 0.178739 0)
(1.02094 0.194905 0)
(1.02856 0.211071 0)
(1.03731 0.225789 0)
(1.07694 0.00742909 0)
(1.00836 0.0163418 0)
(0.99727 0.0238355 0)
(1.00325 0.0320334 0)
(1.00427 0.0404755 0)
(1.00372 0.049046 0)
(1.00363 0.0578772 0)
(1.00378 0.0670519 0)
(1.00404 0.0766274 0)
(1.0045 0.0866661 0)
(1.00524 0.0972313 0)
(1.00635 0.108383 0)
(1.00795 0.120174 0)
(1.01016 0.132647 0)
(1.01314 0.145829 0)
(1.01706 0.159708 0)
(1.02212 0.174209 0)
(1.02856 0.18911 0)
(1.03664 0.203839 0)
(1.04582 0.217022 0)
(1.0801 0.00729331 0)
(1.00862 0.0163251 0)
(0.997262 0.0238495 0)
(1.0037 0.0319953 0)
(1.00497 0.0404041 0)
(1.00464 0.0489342 0)
(1.00485 0.0576896 0)
(1.00536 0.066748 0)
(1.00601 0.0761608 0)
(1.00689 0.0859803 0)
(1.00811 0.0962581 0)
(1.00973 0.107041 0)
(1.01186 0.118367 0)
(1.01463 0.130265 0)
(1.01817 0.142741 0)
(1.02264 0.155768 0)
(1.0282 0.169259 0)
(1.03506 0.182994 0)