/*--------------------------------*- C++ -*----------------------------------*\
  =========                 |
  \\      /  F ield         | OpenFOAM: The Open Source CFD Toolbox
   \\    /   O peration     | Website:  https://openfoam.org
    \\  /    A nd           | Version:  6
     \\/     M anipulation  |
\*---------------------------------------------------------------------------*/
FoamFile
{
    version     2.0;
    format      ascii;
    class       surfaceScalarField;
    location    "0.2";
    object      phi;
}
// * * * * * * * * * * * * * * * * * * * * * * * * * * * * * * * * * * * * * //

dimensions      [0 3 -1 0 0 0 0];

internalField   nonuniform List<scalar> 
11030
(
0.000112539
-2.28129e-07
0.000112668
-1.28252e-07
0.000112732
-6.47328e-08
0.000112732
-6.31616e-11
0.000112654
7.82871e-08
0.000112493
1.6116e-07
0.000112246
2.46536e-07
0.000111909
3.37122e-07
0.000111474
4.35002e-07
0.000110933
5.41558e-07
0.000110274
6.5836e-07
0.000109487
7.87342e-07
0.000108556
9.30709e-07
0.000107465
1.0909e-06
0.000106195
1.27053e-06
0.000104723
1.47209e-06
0.000103026
1.69726e-06
0.00010108
1.94534e-06
9.88699e-05
2.2103e-06
2.47155e-06
9.63983e-05
0.000112479
-3.91912e-07
0.000112578
-2.27125e-07
0.00011261
-9.70834e-08
0.000112565
4.53386e-08
0.000112439
2.03711e-07
0.000112232
3.68701e-07
0.000111938
5.40526e-07
0.000111551
7.23491e-07
0.000111065
9.20973e-07
0.000110471
1.13582e-06
0.000109758
1.37132e-06
0.000108914
1.63137e-06
0.000107924
1.92037e-06
0.000106772
2.24318e-06
0.000105438
2.60491e-06
0.000103899
3.01045e-06
0.000102134
3.463e-06
0.000100118
3.96104e-06
9.78358e-05
4.49247e-06
5.02068e-06
9.52867e-05
0.000112448
-5.16026e-07
0.00011249
-2.68875e-07
0.000112466
-7.32417e-08
0.000112368
1.42913e-07
0.000112191
3.81327e-07
0.00011193
6.29297e-07
0.000111582
8.88109e-07
0.000111142
1.16388e-06
0.000110602
1.46141e-06
0.000109952
1.78494e-06
0.000109184
2.13943e-06
0.000108285
2.53067e-06
0.00010724
2.96516e-06
0.000106033
3.45003e-06
0.000104645
3.9928e-06
0.000103055
4.60056e-06
0.00010124
5.27799e-06
9.91785e-05
6.02292e-06
9.68531e-05
6.81789e-06
7.61327e-06
9.42605e-05
0.000112405
-5.85316e-07
0.000112389
-2.53087e-07
0.000112306
1.03063e-08
0.000112149
2.99772e-07
0.000111913
6.17466e-07
0.000111594
9.4797e-07
0.000111189
1.29331e-06
0.000110691
1.66125e-06
0.000110095
2.05796e-06
0.000109391
2.48904e-06
0.000108569
2.96099e-06
0.000107619
3.48134e-06
0.000106525
4.05849e-06
0.000105274
4.70162e-06
0.000103846
5.42037e-06
0.000102223
6.22379e-06
0.000100383
7.11789e-06
9.83059e-05
8.09985e-06
9.59765e-05
9.14736e-06
1.02005e-05
9.33892e-05
0.000112357
-5.91755e-07
0.000112277
-1.73349e-07
0.000112128
1.58979e-07
0.000111907
5.21276e-07
0.000111607
9.17e-07
0.000111227
1.32874e-06
0.000110761
1.75918e-06
0.000110204
2.21757e-06
0.000109551
2.71131e-06
0.000108793
3.24725e-06
0.000107921
3.83325e-06
0.000106924
4.47836e-06
0.000105789
5.19259e-06
0.000104504
5.98681e-06
0.000103052
6.87235e-06
0.000101416
7.85979e-06
9.95781e-05
8.95611e-06
9.75202e-05
1.01578e-05
9.52296e-05
1.14379e-05
1.27292e-05
9.27009e-05
0.000112304
-5.27968e-07
0.000112153
-2.3124e-08
0.000111934
3.78409e-07
0.000111643
8.12392e-07
0.000111276
1.2842e-06
0.000110829
1.77506e-06
0.0001103
2.28829e-06
0.000109683
2.83437e-06
0.000108973
3.42181e-06
0.000108162
4.05848e-06
0.000107241
4.75341e-06
0.000106203
5.51682e-06
0.000105036
6.35995e-06
0.000103728
7.29489e-06
0.000102266
8.33407e-06
0.000100637
9.48906e-06
9.88254e-05
1.07673e-05
9.68187e-05
1.21645e-05
9.4607e-05
1.36497e-05
1.51511e-05
9.2185e-05
0.000112245
-3.87042e-07
0.000112018
2.03971e-07
0.000111722
6.7425e-07
0.000111357
1.17784e-06
0.000110918
1.72295e-06
0.000110403
2.2901e-06
0.000109808
2.88303e-06
0.00010913
3.5132e-06
0.000108361
4.18997e-06
0.000107498
4.92206e-06
0.000106532
5.71932e-06
0.000105456
6.59278e-06
0.000104261
7.55441e-06
0.000102939
8.61691e-06
0.00010148
9.79318e-06
9.98744e-05
1.1095e-05
9.81117e-05
1.253e-05
9.61834e-05
1.40928e-05
9.40833e-05
1.57497e-05
1.74287e-05
9.18058e-05
0.000112182
-1.62803e-07
0.000111872
5.14187e-07
0.000111494
1.05221e-06
0.00011105
1.62201e-06
0.000110536
2.2368e-06
0.000109949
2.87691e-06
0.000109286
3.54598e-06
0.000108543
4.25603e-06
0.000107716
5.01706e-06
0.0001068
5.83838e-06
0.000105789
6.73028e-06
0.000104678
7.70416e-06
0.00010346
8.77214e-06
0.00010213
9.94686e-06
0.000100682
1.12409e-05
9.91117e-05
1.26656e-05
9.74138e-05
1.42279e-05
9.55845e-05
1.59221e-05
9.36207e-05
1.77135e-05
1.95381e-05
9.15113e-05
0.000112117
1.47901e-07
0.000111715
9.15728e-07
0.000111249
1.5182e-06
0.000110723
2.14839e-06
0.00011013
2.82913e-06
0.000109468
3.53913e-06
0.000108733
4.28077e-06
0.000107923
5.06638e-06
0.000107034
5.90646e-06
0.000106061
6.81059e-06
0.000105003
7.78914e-06
0.000103853
8.85333e-06
0.000102611
1.00148e-05
0.000101272
1.12853e-05
9.98371e-05
1.26761e-05
9.83058e-05
1.41969e-05
9.668e-05
1.58536e-05
9.49614e-05
1.76408e-05
9.31513e-05
1.95235e-05
2.14408e-05
9.12486e-05
0.000112046
5.49597e-07
0.000111546
1.41569e-06
0.000110994
2.07098e-06
0.000110384
2.7579e-06
0.00010971
3.50302e-06
0.000108969
4.27993e-06
0.00010816
5.09049e-06
0.000107279
5.94744e-06
0.000106324
6.86151e-06
0.000105292
7.84231e-06
0.000104181
8.89996e-06
0.000102989
1.0045e-05
0.000101716
1.1288e-05
0.000100363
1.26388e-05
9.89325e-05
1.41061e-05
9.7433e-05
1.56964e-05
9.58752e-05
1.74114e-05
9.42714e-05
1.92446e-05
9.26164e-05
2.11785e-05
9.09123e-05
2.3145e-05
8.62314e-05
1.0167e-05
7.59248e-05
1.03066e-05
6.5466e-05
1.04588e-05
5.48518e-05
1.06141e-05
4.40993e-05
1.07525e-05
3.3284e-05
1.08153e-05
2.26199e-05
1.06641e-05
1.26147e-05
1.00053e-05
4.32455e-06
8.29011e-06
4.32455e-06
8.5218e-05
2.02356e-05
7.50019e-05
2.05228e-05
6.46343e-05
2.08264e-05
5.4115e-05
2.11334e-05
4.34651e-05
2.14024e-05
3.27649e-05
2.15155e-05
2.22308e-05
2.11982e-05
1.23679e-05
1.98682e-05
4.26671e-06
1.63913e-05
8.59126e-06
8.42965e-05
3.01996e-05
7.41771e-05
3.06422e-05
6.3904e-05
3.10995e-05
5.34793e-05
3.15581e-05
4.29264e-05
3.19553e-05
3.23293e-05
3.21126e-05
2.19087e-05
3.16187e-05
1.21732e-05
2.96037e-05
4.1887e-06
2.43758e-05
1.278e-05
8.35201e-05
4.00687e-05
7.34895e-05
4.06729e-05
6.33029e-05
4.12861e-05
5.29631e-05
4.18979e-05
4.24941e-05
4.24243e-05
3.19822e-05
4.26245e-05
2.1652e-05
4.1949e-05
1.20147e-05
3.9241e-05
4.1264e-06
3.22641e-05
1.69064e-05
8.29122e-05
4.98574e-05
7.29558e-05
5.06293e-05
6.28415e-05
5.14004e-05
5.25708e-05
5.21686e-05
4.21669e-05
5.28282e-05
3.17177e-05
5.30737e-05
2.1452e-05
5.22147e-05
1.18864e-05
4.88066e-05
4.07377e-06
4.00767e-05
2.09801e-05
8.2461e-05
5.95814e-05
7.25628e-05
6.05275e-05
6.25045e-05
6.14587e-05
5.22844e-05
6.23887e-05
4.19243e-05
6.31883e-05
3.15141e-05
6.34839e-05
2.12885e-05
6.24403e-05
1.17729e-05
5.83221e-05
4.02259e-06
4.78271e-05
2.50027e-05
8.21288e-05
6.92585e-05
7.22717e-05
7.03845e-05
6.22525e-05
7.14779e-05
5.20635e-05
7.25778e-05
4.17254e-05
7.35264e-05
3.13319e-05
7.38773e-05
2.1127e-05
7.26452e-05
1.1649e-05
6.78001e-05
3.96008e-06
5.5516e-05
2.89628e-05
8.18546e-05
7.89152e-05
7.20182e-05
8.02208e-05
6.20202e-05
8.14759e-05
5.1842e-05
8.2756e-05
4.15058e-05
8.38626e-05
3.11124e-05
8.42707e-05
2.0919e-05
8.28386e-05
1.14808e-05
7.72383e-05
3.86934e-06
6.31275e-05
3.28321e-05
8.15382e-05
8.86256e-05
7.1696e-05
9.0063e-05
6.16991e-05
9.14728e-05
5.15141e-05
9.2941e-05
4.11703e-05
9.42064e-05
3.07761e-05
9.46649e-05
2.06037e-05
9.30109e-05
1.12254e-05
8.66166e-05
3.72619e-06
7.06267e-05
3.65583e-05
8.09495e-05
9.85883e-05
7.11124e-05
9.99001e-05
6.1101e-05
0.000101484
5.09138e-05
0.000103128
4.05835e-05
0.000104537
3.02199e-05
0.000105029
2.01049e-05
0.000103126
1.08215e-05
9.59e-05
3.48078e-06
7.79674e-05
4.00391e-05
3.12093e-05
0.000103842
-3.64631e-05
2.59735e-05
0.000105136
2.08067e-05
0.000106651
1.57492e-05
0.000108186
1.09406e-05
0.000109345
6.62953e-06
0.00010934
3.1621e-06
0.000106593
8.96044e-07
9.8166e-05
-1.70371e-08
7.88805e-05
4.00221e-05
2.55943e-05
0.000108556
-3.03085e-05
2.08572e-05
0.000109873
1.61888e-05
0.000111319
1.16899e-05
0.000112685
7.5179e-06
0.000113517
3.92084e-06
0.000112937
1.21895e-06
0.000109295
-2.83639e-07
9.96686e-05
-5.13008e-07
7.91099e-05
3.95091e-05
2.00845e-05
0.00011277
-2.42981e-05
1.585e-05
0.000114108
1.17062e-05
0.000115463
7.78032e-06
0.00011661
4.25187e-06
0.000117046
1.37104e-06
0.000115818
-5.66517e-07
0.000111233
-1.31454e-06
0.000100417
-8.94534e-07
7.86899e-05
3.86145e-05
1.47458e-05
0.000116497
-1.84727e-05
1.10195e-05
0.000117834
7.41032e-06
0.000119072
4.06594e-06
0.000119955
1.18306e-06
0.000119929
-9.87864e-07
0.000117988
-2.17747e-06
0.000112422
-2.20297e-06
0.000100442
-1.19491e-06
7.76818e-05
3.74196e-05
9.62578e-06
0.00011975
-1.28789e-05
6.40261e-06
0.000121057
3.33067e-06
0.000122144
5.71699e-07
0.000122714
-1.66699e-06
0.000122167
-3.13987e-06
0.000119461
-3.60878e-06
0.000112891
-2.95902e-06
9.97924e-05
-1.43019e-06
7.6153e-05
3.59894e-05
4.75687e-06
0.000122545
-7.55234e-06
2.02593e-06
0.000123788
-5.1295e-07
0.000124683
-2.68874e-06
0.00012489
-4.28986e-06
0.000123769
-5.0819e-06
0.000120253
-4.86373e-06
0.000112673
-3.59204e-06
9.85207e-05
-1.60958e-06
7.41705e-05
3.43798e-05
1.58114e-07
0.000124901
-2.51357e-06
-2.0945e-06
0.000126041
-4.1092e-06
0.000126698
-5.70927e-06
0.00012649
-6.68449e-06
0.000124744
-6.81776e-06
0.000120387
-5.95054e-06
0.000111806
-4.11278e-06
9.66829e-05
-1.74185e-06
7.17996e-05
3.2638e-05
-4.16539e-06
0.000126835
2.23162e-06
-5.95449e-06
0.00012783
-7.45611e-06
0.0001282
-8.49093e-06
0.000127524
-8.8551e-06
0.000125108
-8.3548e-06
0.000119886
-6.87932e-06
0.00011033
-4.53237e-06
9.4336e-05
-1.83499e-06
6.91022e-05
3.0803e-05
-8.21979e-06
0.000128366
6.68836e-06
-9.55942e-06
0.000129169
-1.0558e-05
0.000129198
-1.10371e-05
0.000128004
-1.08047e-05
0.000124876
-9.69724e-06
0.000118779
-7.65753e-06
0.000108291
-4.86142e-06
9.15399e-05
-1.89746e-06
6.61383e-05
2.89055e-05
-1.20238e-05
1.08893e-05
0.0001295
-1.29131e-05
0.000130059
-1.34058e-05
0.000129691
-1.33301e-05
0.000127928
-1.25138e-05
0.000124059
-1.08324e-05
0.000117097
-8.28606e-06
0.000105744
-5.11422e-06
8.8368e-05
-1.94708e-06
6.29711e-05
2.69585e-05
7.97844e-05
-3.71014e-05
-7.91461e-05
8.06332e-05
-3.11573e-05
8.16642e-05
-2.5329e-05
8.28242e-05
-1.96327e-05
8.4072e-05
-1.41268e-05
8.53607e-05
-8.84105e-06
8.66409e-05
-3.79373e-06
8.78646e-05
1.0079e-06
8.89879e-05
5.56504e-06
9.91044e-06
8.99668e-05
8.04236e-05
-3.75577e-05
-7.99674e-05
8.10668e-05
-3.18005e-05
8.18902e-05
-2.61524e-05
8.28511e-05
-2.05936e-05
8.39118e-05
-1.51875e-05
8.50319e-05
-9.96111e-06
8.6169e-05
-4.93084e-06
8.7282e-05
-1.05082e-07
8.83321e-05
4.51491e-06
8.95992e-06
8.92827e-05
8.09675e-05
-3.78133e-05
-8.07119e-05
8.14236e-05
-3.22566e-05
8.20546e-05
-2.67834e-05
8.28278e-05
-2.13668e-05
8.37098e-05
-1.60695e-05
8.4666e-05
-1.09173e-05
8.56607e-05
-5.92554e-06
8.66593e-05
-1.10364e-06
8.76287e-05
3.54547e-06
8.04926e-06
8.85394e-05
8.14351e-05
-3.79196e-05
-8.13288e-05
8.17275e-05
-3.2549e-05
8.21847e-05
-2.72406e-05
8.27832e-05
-2.19654e-05
8.34958e-05
-1.67821e-05
8.42941e-05
-1.17156e-05
8.51489e-05
-6.78033e-06
8.60315e-05
-1.98626e-06
8.69143e-05
2.66268e-06
7.19023e-06
8.77734e-05
8.18196e-05
-3.79057e-05
-8.18335e-05
8.19732e-05
-3.27026e-05
8.22784e-05
-2.75458e-05
8.27201e-05
-2.24071e-05
8.32777e-05
-1.73396e-05
8.39288e-05
-1.23667e-05
8.46503e-05
-7.50187e-06
8.54191e-05
-2.75504e-06
8.62124e-05
1.86941e-06
6.39195e-06
8.70107e-05
8.21213e-05
-3.77859e-05
-8.22412e-05
8.21549e-05
-3.27361e-05
8.23286e-05
-2.77195e-05
8.2633e-05
-2.27115e-05
8.3053e-05
-1.77596e-05
8.35715e-05
-1.28852e-05
8.41704e-05
-8.10078e-06
8.48314e-05
-3.41604e-06
8.55361e-05
1.16471e-06
5.6593e-06
8.62688e-05
8.23475e-05
-3.75704e-05
-8.25629e-05
8.22754e-05
-3.2664e-05
8.2335e-05
-2.77791e-05
8.25205e-05
-2.2897e-05
8.28203e-05
-1.80595e-05
8.32215e-05
-1.32863e-05
8.37101e-05
-8.58943e-06
8.42718e-05
-3.97777e-06
8.4892e-05
5.44581e-07
4.99339e-06
8.55579e-05
8.2507e-05
-3.72686e-05
-8.28088e-05
8.23412e-05
-3.24983e-05
8.23015e-05
-2.77394e-05
8.23838e-05
-2.29792e-05
8.25792e-05
-1.82549e-05
8.28778e-05
-1.35849e-05
8.32687e-05
-8.98033e-06
8.37407e-05
-4.44976e-06
8.42821e-05
3.15003e-09
4.39253e-06
8.48829e-05
8.26085e-05
-3.68888e-05
-8.29883e-05
8.23596e-05
-3.22494e-05
8.22329e-05
-2.76127e-05
8.22255e-05
-2.29717e-05
8.23303e-05
-1.83598e-05
8.25395e-05
-1.37941e-05
8.28445e-05
-9.28535e-06
8.32364e-05
-4.8417e-06
8.3706e-05
-4.66444e-07
3.85321e-06
8.42454e-05
8.26604e-05
-3.64386e-05
-8.31105e-05
8.23375e-05
-3.19265e-05
8.21344e-05
-2.74096e-05
8.20487e-05
-2.28861e-05
8.20749e-05
-1.83859e-05
8.22063e-05
-1.39255e-05
8.24361e-05
-9.51521e-06
8.27572e-05
-5.16282e-06
8.31621e-05
-8.71345e-07
3.37084e-06
8.36445e-05
8.26701e-05
-3.59253e-05
-8.31834e-05
8.22815e-05
-3.15379e-05
8.2011e-05
-2.71392e-05
8.18569e-05
-2.2732e-05
8.18144e-05
-1.83434e-05
8.18781e-05
-1.39891e-05
8.20423e-05
-9.67941e-06
8.23011e-05
-5.42158e-06
8.26482e-05
-1.21851e-06
2.94036e-06
8.30787e-05
8.26445e-05
-3.53554e-05
-8.32144e-05
8.21973e-05
-3.10907e-05
8.18675e-05
-2.68093e-05
8.16533e-05
-2.25178e-05
8.15508e-05
-1.82409e-05
8.15554e-05
-1.39937e-05
8.16622e-05
-9.7862e-06
8.18661e-05
-5.62553e-06
8.2162e-05
-1.51444e-06
2.55666e-06
8.25457e-05
8.25895e-05
-3.47351e-05
-8.32098e-05
8.20903e-05
-3.05915e-05
8.17079e-05
-2.6427e-05
8.14409e-05
-2.22508e-05
8.12859e-05
-1.80859e-05
8.12387e-05
-1.39465e-05
8.12952e-05
-9.84269e-06
8.14509e-05
-5.78129e-06
8.17015e-05
-1.765e-06
2.21485e-06
8.20433e-05
8.25103e-05
-3.40698e-05
-8.31756e-05
8.1965e-05
-3.00463e-05
8.15362e-05
-2.59981e-05
8.12226e-05
-2.19372e-05
8.10213e-05
-1.78845e-05
8.09286e-05
-1.38539e-05
8.09409e-05
-9.85499e-06
8.10543e-05
-5.89463e-06
8.12647e-05
-1.97543e-06
1.91041e-06
8.15691e-05
8.24116e-05
-3.33646e-05
-8.31169e-05
8.18255e-05
-2.94601e-05
8.13555e-05
-2.55282e-05
8.10008e-05
-2.15825e-05
8.07586e-05
-1.76424e-05
8.06259e-05
-1.37212e-05
8.05993e-05
-9.82834e-06
8.06752e-05
-5.97054e-06
8.08501e-05
-2.15033e-06
1.63926e-06
8.11212e-05
8.22975e-05
-3.26238e-05
-8.30382e-05
8.16751e-05
-2.88376e-05
8.11687e-05
-2.50219e-05
8.07776e-05
-2.11913e-05
8.04993e-05
-1.73641e-05
8.03312e-05
-1.3553e-05
8.02702e-05
-9.76728e-06
8.03129e-05
-6.01333e-06
8.04563e-05
-2.29373e-06
1.39775e-06
8.06979e-05
8.21714e-05
-3.18516e-05
-8.29437e-05
8.15168e-05
-2.8183e-05
8.09782e-05
-2.44833e-05
8.05548e-05
-2.07679e-05
8.02446e-05
-1.70539e-05
8.00451e-05
-1.33535e-05
7.99535e-05
-9.6757e-06
7.99669e-05
-6.02673e-06
8.00823e-05
-2.40912e-06
1.18267e-06
8.02974e-05
8.20365e-05
-3.10515e-05
-8.28366e-05
8.13533e-05
-2.74999e-05
8.07861e-05
-2.3916e-05
8.0334e-05
-2.03158e-05
7.99954e-05
-1.67153e-05
7.9768e-05
-1.31261e-05
7.96493e-05
-9.55699e-06
7.96365e-05
-6.01396e-06
7.97269e-05
-2.49956e-06
9.91196e-07
7.99184e-05
8.18952e-05
-3.02266e-05
-8.27201e-05
8.11867e-05
-2.67915e-05
8.0594e-05
-2.33233e-05
8.01165e-05
-1.98383e-05
7.97526e-05
-1.63514e-05
7.95003e-05
-1.28739e-05
7.93574e-05
-9.41407e-06
7.93213e-05
-5.97785e-06
7.93894e-05
-2.56769e-06
8.20846e-07
7.95598e-05
8.17499e-05
-2.93797e-05
-8.25967e-05
8.10189e-05
-2.60606e-05
8.04036e-05
-2.27079e-05
7.99033e-05
-1.9338e-05
7.95169e-05
-1.5965e-05
7.92424e-05
-1.25994e-05
7.90779e-05
-9.24952e-06
7.90209e-05
-5.92084e-06
7.9069e-05
-2.61582e-06
6.69454e-07
7.92204e-05
8.16024e-05
-2.85134e-05
-8.24687e-05
8.08515e-05
-2.53097e-05
8.02159e-05
-2.20724e-05
7.96954e-05
-1.88175e-05
7.92888e-05
-1.55584e-05
7.89945e-05
-1.23051e-05
7.88106e-05
-9.06556e-06
7.87348e-05
-5.84506e-06
7.8765e-05
-2.646e-06
5.35116e-07
7.88993e-05
8.14544e-05
-2.76297e-05
-8.23381e-05
8.06856e-05
-2.45409e-05
8.00321e-05
-2.14188e-05
7.94935e-05
-1.82789e-05
7.90688e-05
-1.51337e-05
7.87567e-05
-1.1993e-05
7.85553e-05
-8.86417e-06
7.84626e-05
-5.75239e-06
7.84766e-05
-2.65999e-06
4.16159e-07
7.85956e-05
8.13072e-05
-2.67305e-05
-8.22063e-05
8.05226e-05
-2.37564e-05
7.98529e-05
-2.07492e-05
7.92981e-05
-1.77241e-05
7.88572e-05
-1.46929e-05
7.85291e-05
-1.16648e-05
7.8312e-05
-8.64706e-06
7.82041e-05
-5.64449e-06
7.82034e-05
-2.65935e-06
3.11106e-07
7.83085e-05
8.11619e-05
-2.58176e-05
-8.20748e-05
8.03632e-05
-2.29576e-05
7.96791e-05
-2.00651e-05
7.91097e-05
-1.71547e-05
7.86542e-05
-1.42374e-05
7.83116e-05
-1.13222e-05
7.80803e-05
-8.41577e-06
7.79587e-05
-5.52281e-06
7.79448e-05
-2.64548e-06
2.18656e-07
7.80372e-05
8.10195e-05
-2.48925e-05
-8.19447e-05
8.02081e-05
-2.21462e-05
7.95111e-05
-1.93681e-05
7.89286e-05
-1.65722e-05
7.846e-05
-1.37689e-05
7.81044e-05
-1.09665e-05
7.78602e-05
-8.17165e-06
7.77261e-05
-5.38864e-06
7.77002e-05
-2.61959e-06
1.37653e-07
7.77812e-05
8.08808e-05
-2.39563e-05
-8.1817e-05
8.0058e-05
-2.13234e-05
7.93494e-05
-1.86595e-05
7.87551e-05
-1.59779e-05
7.82747e-05
-1.32884e-05
7.79072e-05
-1.0599e-05
7.76514e-05
-7.91588e-06
7.75059e-05
-5.24312e-06
7.74691e-05
-2.58277e-06
6.70688e-08
7.75397e-05
8.07464e-05
-2.30104e-05
-8.16923e-05
7.99134e-05
-2.04904e-05
7.91943e-05
-1.79404e-05
7.85893e-05
-1.53729e-05
7.80982e-05
-1.27972e-05
7.772e-05
-1.02208e-05
7.74536e-05
-7.64954e-06
7.72978e-05
-5.08728e-06
7.7251e-05
-2.536e-06
5.98434e-09
7.73121e-05
8.06167e-05
-2.20556e-05
-8.15714e-05
7.97745e-05
-1.96482e-05
7.9046e-05
-1.72119e-05
7.84314e-05
-1.47583e-05
7.79305e-05
-1.22963e-05
7.75426e-05
-9.83291e-06
7.72666e-05
-7.37357e-06
7.71013e-05
-4.92202e-06
7.70455e-05
-2.48014e-06
-4.6419e-08
7.70979e-05
8.04921e-05
-2.10929e-05
-8.14548e-05
7.96417e-05
-1.87978e-05
7.89047e-05
-1.64749e-05
7.82814e-05
-1.4135e-05
7.77716e-05
-1.17866e-05
7.73748e-05
-9.43612e-06
7.70901e-05
-7.08881e-06
7.69162e-05
-4.74818e-06
7.68521e-05
-2.41597e-06
-9.08802e-08
7.68965e-05
8.0373e-05
-2.01231e-05
-8.13428e-05
7.95152e-05
-1.794e-05
7.87705e-05
-1.57301e-05
7.81392e-05
-1.35038e-05
7.76215e-05
-1.12688e-05
7.72166e-05
-9.03126e-06
7.69238e-05
-6.79605e-06
7.67421e-05
-4.56647e-06
7.66703e-05
-2.34419e-06
-1.28064e-07
7.67075e-05
8.02596e-05
-1.9147e-05
-8.12358e-05
7.93951e-05
-1.70755e-05
7.86434e-05
-1.49784e-05
7.8005e-05
-1.28654e-05
7.74799e-05
-1.07437e-05
7.70676e-05
-8.61903e-06
7.67675e-05
-6.49595e-06
7.65786e-05
-4.37756e-06
7.64999e-05
-2.26543e-06
-1.58574e-07
7.65304e-05
8.0152e-05
-1.8165e-05
-8.11339e-05
7.92814e-05
-1.62049e-05
7.85234e-05
-1.42204e-05
7.78785e-05
-1.22205e-05
7.73467e-05
-1.02119e-05
7.69278e-05
-8.20008e-06
7.6621e-05
-6.18916e-06
7.64255e-05
-4.18205e-06
7.63403e-05
-2.18028e-06
-1.82954e-07
7.63647e-05
8.00503e-05
-1.71779e-05
-8.10374e-05
7.91743e-05
-1.53288e-05
7.84105e-05
-1.34567e-05
7.77597e-05
-1.15696e-05
7.72219e-05
-9.67409e-06
7.67968e-05
-7.77498e-06
7.64838e-05
-5.87622e-06
7.62823e-05
-3.9805e-06
7.61913e-05
-2.08925e-06
-2.01704e-07
7.621e-05
7.99546e-05
-1.61862e-05
-8.09464e-05
7.90737e-05
-1.44479e-05
7.83048e-05
-1.26877e-05
7.76485e-05
-1.09134e-05
7.71052e-05
-9.13073e-06
7.66745e-05
-7.34428e-06
7.63559e-05
-5.55767e-06
7.61488e-05
-3.7734e-06
7.60524e-05
-1.99282e-06
-2.15278e-07
7.6066e-05
7.9865e-05
-1.51903e-05
-8.08609e-05
7.89796e-05
-1.35625e-05
7.8206e-05
-1.19142e-05
7.75449e-05
-1.02523e-05
7.69965e-05
-8.58234e-06
7.65607e-05
-6.90844e-06
7.6237e-05
-5.23396e-06
7.60248e-05
-3.56121e-06
7.59234e-05
-1.89144e-06
-2.24095e-07
7.59322e-05
7.97813e-05
-1.41907e-05
-8.07809e-05
7.88919e-05
-1.26731e-05
7.81141e-05
-1.11364e-05
7.74486e-05
-9.5868e-06
7.68956e-05
-8.02936e-06
7.64551e-05
-6.46793e-06
7.61267e-05
-4.90555e-06
7.59098e-05
-3.34435e-06
7.58039e-05
-1.78551e-06
-2.28544e-07
7.58084e-05
7.97037e-05
-1.31878e-05
-8.07066e-05
7.88107e-05
-1.17801e-05
7.80291e-05
-1.03547e-05
7.73596e-05
-8.91727e-06
7.68025e-05
-7.47221e-06
7.63577e-05
-6.02314e-06
7.60249e-05
-4.57282e-06
7.58038e-05
-3.12321e-06
7.56937e-05
-1.6754e-06
-2.28979e-07
7.56941e-05
7.9632e-05
-1.21819e-05
-8.06378e-05
7.87359e-05
-1.0884e-05
7.79509e-05
-9.56973e-06
7.72777e-05
-8.24412e-06
7.67168e-05
-6.91129e-06
7.62681e-05
-5.57447e-06
7.59315e-05
-4.23616e-06
7.57064e-05
-2.89816e-06
7.55925e-05
-1.56146e-06
-2.25735e-07
7.55892e-05
7.95662e-05
-1.11735e-05
-8.05746e-05
7.86673e-05
-9.98513e-06
7.78793e-05
-8.78168e-06
7.72029e-05
-7.56773e-06
7.66385e-05
-6.34695e-06
7.61863e-05
-5.12226e-06
7.58461e-05
-3.89592e-06
7.56174e-05
-2.66953e-06
7.55e-05
-1.44402e-06
-2.19123e-07
7.54934e-05
7.95063e-05
-1.01629e-05
-8.05169e-05
7.86049e-05
-9.08376e-06
7.78142e-05
-7.99092e-06
7.71349e-05
-6.88842e-06
7.65675e-05
-5.77954e-06
7.61121e-05
-4.66686e-06
7.57686e-05
-3.55241e-06
7.55367e-05
-2.43764e-06
7.5416e-05
-1.32338e-06
-2.09436e-07
7.54063e-05
7.94522e-05
-9.15034e-06
-8.04647e-05
7.85487e-05
-8.18025e-06
7.77556e-05
-7.1978e-06
7.70737e-05
-6.20654e-06
7.65035e-05
-5.20937e-06
7.60452e-05
-4.20858e-06
7.56988e-05
-3.20595e-06
7.54639e-05
-2.20279e-06
7.53404e-05
-1.19984e-06
-1.96951e-07
7.53279e-05
7.94038e-05
-8.1362e-06
-8.0418e-05
7.84985e-05
-7.27492e-06
7.77033e-05
-6.40261e-06
7.70191e-05
-5.52238e-06
7.64465e-05
-4.63674e-06
7.59857e-05
-3.74771e-06
7.56365e-05
-2.85684e-06
7.5399e-05
-1.96526e-06
7.52728e-05
-1.07366e-06
-1.81931e-07
7.52578e-05
7.93611e-05
-7.12078e-06
-8.03766e-05
7.84543e-05
-6.36806e-06
7.76573e-05
-5.60566e-06
7.69712e-05
-4.83624e-06
7.63964e-05
-4.06196e-06
7.59332e-05
-3.28454e-06
7.55817e-05
-2.50534e-06
7.53418e-05
-1.72533e-06
7.52132e-05
-9.4512e-07
-1.64629e-07
7.51959e-05
7.9324e-05
-6.10435e-06
-8.03405e-05
7.84159e-05
-5.45995e-06
7.76175e-05
-4.80723e-06
7.69297e-05
-4.1484e-06
7.6353e-05
-3.48529e-06
7.58878e-05
-2.81935e-06
7.55342e-05
-2.15172e-06
7.52921e-05
-1.48325e-06
7.51614e-05
-8.14457e-07
-1.45291e-07
7.51421e-05
7.92925e-05
-5.08721e-06
-8.03096e-05
7.83834e-05
-4.55089e-06
7.75838e-05
-4.00759e-06
7.68945e-05
-3.45913e-06
7.63162e-05
-2.90699e-06
7.58493e-05
-2.35239e-06
7.54938e-05
-1.79625e-06
7.52498e-05
-1.23928e-06
7.51173e-05
-6.81927e-07
-1.24156e-07
7.50962e-05
7.92664e-05
-4.06962e-06
-8.0284e-05
7.83567e-05
-3.64113e-06
7.75561e-05
-3.20701e-06
7.68656e-05
-2.76868e-06
7.6286e-05
-2.32733e-06
7.58175e-05
-1.88391e-06
7.54604e-05
-1.43917e-06
7.52148e-05
-9.93674e-07
7.50807e-05
-5.47774e-07
-1.01462e-07
7.5058e-05
7.92458e-05
-3.05187e-06
-8.02636e-05
7.83356e-05
-2.73093e-06
7.75343e-05
-2.40572e-06
7.6843e-05
-2.07729e-06
7.62622e-05
-1.74654e-06
7.57924e-05
-1.41417e-06
7.5434e-05
-1.08074e-06
7.5187e-05
-7.46676e-07
7.50515e-05
-4.12245e-07
-7.74504e-08
7.50275e-05
7.92306e-05
-2.0342e-06
-8.02483e-05
7.83202e-05
-1.82053e-06
7.75185e-05
-1.60397e-06
7.68264e-05
-1.38522e-06
7.62447e-05
-1.16488e-06
7.5774e-05
-9.43425e-07
7.54145e-05
-7.21218e-07
7.51663e-05
-4.98546e-07
7.50297e-05
-2.75592e-07
-5.23662e-08
7.50046e-05
7.92207e-05
-1.01684e-06
-8.02381e-05
7.83103e-05
-9.10157e-07
7.75083e-05
-8.0199e-07
7.68158e-05
-6.92707e-07
7.62336e-05
-5.82611e-07
7.57621e-05
-4.71937e-07
7.54017e-05
-3.60872e-07
7.51527e-05
-2.49556e-07
7.50152e-05
-1.38082e-07
-2.6461e-08
7.49893e-05
7.9216e-05
-8.02329e-05
7.83059e-05
7.75039e-05
7.68112e-05
7.62286e-05
7.57566e-05
7.53958e-05
7.51462e-05
7.50081e-05
7.49817e-05
7.74304e-05
5.9486e-07
7.74151e-05
1.43099e-06
7.73824e-05
2.10367e-06
7.73273e-05
2.813e-06
7.72636e-05
3.56674e-06
7.71944e-05
4.34912e-06
7.71201e-05
5.1648e-06
7.70431e-05
6.02442e-06
7.69673e-05
6.93731e-06
7.68974e-05
7.91223e-06
7.68392e-05
8.95818e-06
7.68e-05
1.00842e-05
7.6789e-05
1.12989e-05
7.68178e-05
1.26101e-05
7.69004e-05
1.40236e-05
7.70543e-05
1.55425e-05
7.73015e-05
1.71642e-05
7.76734e-05
1.88727e-05
7.82362e-05
2.06158e-05
2.22351e-05
7.74593e-05
6.21175e-07
7.74447e-05
1.44562e-06
7.74225e-05
2.12587e-06
7.73867e-05
2.84879e-06
7.73452e-05
3.60825e-06
7.73016e-05
4.39277e-06
7.72574e-05
5.20902e-06
7.72154e-05
6.06634e-06
7.71799e-05
6.97287e-06
7.71557e-05
7.93642e-06
7.7149e-05
8.96487e-06
7.71674e-05
1.00658e-05
7.72204e-05
1.12459e-05
7.73197e-05
1.25108e-05
7.74793e-05
1.38639e-05
7.77171e-05
1.53047e-05
7.80551e-05
1.68262e-05
7.85217e-05
1.84061e-05
7.91529e-05
1.99845e-05
2.14206e-05
7.74836e-05
6.33853e-07
7.74734e-05
1.45578e-06
7.74609e-05
2.13835e-06
7.74422e-05
2.86751e-06
7.74214e-05
3.62901e-06
7.74019e-05
4.4123e-06
7.73859e-05
5.22503e-06
7.73766e-05
6.07569e-06
7.73781e-05
6.97138e-06
7.73955e-05
7.91899e-06
7.74351e-05
8.92525e-06
7.75046e-05
9.99632e-06
7.76131e-05
1.11373e-05
7.77721e-05
1.23519e-05
7.79951e-05
1.36409e-05
7.82983e-05
1.50015e-05
7.8701e-05
1.64236e-05
7.92245e-05
1.78826e-05
7.98894e-05
1.93196e-05
2.05982e-05
7.75022e-05
6.38729e-07
7.74994e-05
1.45861e-06
7.74971e-05
2.14062e-06
7.74938e-05
2.87081e-06
7.74922e-05
3.6306e-06
7.74952e-05
4.40931e-06
7.75054e-05
5.21486e-06
7.7526e-05
6.05506e-06
7.75613e-05
6.93612e-06
7.76163e-05
7.86398e-06
7.76972e-05
8.84434e-06
7.78114e-05
9.88209e-06
7.79679e-05
1.09809e-05
7.81771e-05
1.21426e-05
7.84515e-05
1.33665e-05
7.88055e-05
1.46475e-05
7.92552e-05
1.59739e-05
7.98174e-05
1.73205e-05
8.05061e-05
1.86308e-05
1.97755e-05
7.75184e-05
6.3828e-07
7.75229e-05
1.45419e-06
7.75305e-05
2.13294e-06
7.75413e-05
2.86001e-06
7.75573e-05
3.61462e-06
7.7581e-05
4.38563e-06
7.76151e-05
5.18077e-06
7.76629e-05
6.00726e-06
7.77285e-05
6.87047e-06
7.7817e-05
7.77552e-06
7.79342e-05
8.72714e-06
7.80872e-05
9.72909e-06
7.82843e-05
1.07838e-05
7.85352e-05
1.18918e-05
7.88509e-05
1.30507e-05
7.9244e-05
1.42544e-05
7.97278e-05
1.54901e-05
8.03155e-05
1.67328e-05
8.10169e-05
1.79294e-05
1.89589e-05
7.75332e-05
6.33977e-07
7.75442e-05
1.44314e-06
7.75612e-05
2.116e-06
7.75847e-05
2.83653e-06
7.76164e-05
3.58284e-06
7.76588e-05
4.34328e-06
7.77144e-05
5.12519e-06
7.77865e-05
5.93517e-06
7.7879e-05
6.77791e-06
7.79968e-05
7.65773e-06
7.81455e-05
8.5785e-06
7.83315e-05
9.54305e-06
7.85626e-05
1.05527e-05
7.88474e-05
1.1607e-05
7.91956e-05
1.27025e-05
7.96181e-05
1.3832e-05
8.01257e-05
1.49824e-05
8.07288e-05
1.61297e-05
8.14344e-05
1.72239e-05
1.81521e-05
7.7547e-05
6.26709e-07
7.75639e-05
1.42619e-06
7.75892e-05
2.0907e-06
7.76239e-05
2.8018e-06
7.76697e-05
3.53703e-06
7.77287e-05
4.28434e-06
7.78033e-05
5.05057e-06
7.78967e-05
5.84173e-06
7.80128e-05
6.66187e-06
7.81559e-05
7.51463e-06
7.83313e-05
8.4031e-06
7.8545e-05
9.32932e-06
7.88039e-05
1.02938e-05
7.91158e-05
1.12951e-05
7.94891e-05
1.23292e-05
7.99328e-05
1.33883e-05
8.0456e-05
1.44592e-05
8.10668e-05
1.55189e-05
8.177e-05
1.65206e-05
1.73591e-05
7.756e-05
6.17049e-07
7.75821e-05
1.40411e-06
7.76148e-05
2.05804e-06
7.76594e-05
2.75721e-06
7.77174e-05
3.47896e-06
7.77908e-05
4.21092e-06
7.7882e-05
4.95938e-06
7.79939e-05
5.72982e-06
7.81301e-05
6.5257e-06
7.82947e-05
7.35004e-06
7.84925e-05
8.20529e-06
7.8729e-05
9.09283e-06
7.90103e-05
1.00125e-05
7.93432e-05
1.09622e-05
7.9735e-05
1.19374e-05
8.01933e-05
1.293e-05
8.07254e-05
1.39271e-05
8.13377e-05
1.49066e-05
8.20335e-05
1.58249e-05
1.65838e-05
7.75725e-05
6.05407e-07
7.7599e-05
1.37763e-06
7.7638e-05
2.01899e-06
7.76911e-05
2.70412e-06
7.77598e-05
3.41033e-06
7.78457e-05
4.12502e-06
7.7951e-05
4.85399e-06
7.80787e-05
5.60219e-06
7.82318e-05
6.37254e-06
7.84143e-05
7.16754e-06
7.86305e-05
7.98911e-06
7.88853e-05
8.83805e-06
7.91841e-05
9.7137e-06
7.95328e-05
1.06135e-05
7.99376e-05
1.15326e-05
8.04048e-05
1.24628e-05
8.09405e-05
1.33915e-05
8.15494e-05
1.42976e-05
8.22337e-05
1.51407e-05
1.58291e-05
7.75845e-05
5.92114e-07
7.76147e-05
1.34742e-06
7.76592e-05
1.9745e-06
7.77195e-05
2.64381e-06
7.77971e-05
3.33273e-06
7.78935e-05
4.02858e-06
7.80109e-05
4.73666e-06
7.81516e-05
5.46142e-06
7.83188e-05
6.20534e-06
7.85159e-05
6.97046e-06
7.87468e-05
7.75822e-06
7.90159e-05
8.569e-06
7.93278e-05
9.40174e-06
7.96878e-05
1.02536e-05
8.01009e-05
1.11194e-05
8.05725e-05
1.19912e-05
8.11073e-05
1.28567e-05
8.1709e-05
1.36959e-05
8.23786e-05
1.44711e-05
1.50972e-05
7.75959e-05
5.77449e-07
7.76293e-05
1.31407e-06
7.76783e-05
1.92546e-06
7.77447e-05
2.57744e-06
7.78297e-05
3.24765e-06
7.79349e-05
3.92338e-06
7.80621e-05
4.60947e-06
7.82136e-05
5.30992e-06
7.83922e-05
6.02681e-06
7.86008e-05
6.76179e-06
7.88431e-05
7.51593e-06
7.91229e-05
8.28925e-06
7.94442e-05
9.0804e-06
7.98114e-05
9.88634e-06
8.0229e-05
1.07019e-05
8.07011e-05
1.15191e-05
8.12316e-05
1.23262e-05
8.1823e-05
1.31044e-05
8.24756e-05
1.38185e-05
1.43894e-05
7.76069e-05
5.61659e-07
7.76428e-05
1.27816e-06
7.76956e-05
1.87265e-06
7.77669e-05
2.50611e-06
7.78581e-05
3.15647e-06
7.79704e-05
3.81108e-06
7.81055e-05
4.47434e-06
7.82656e-05
5.14988e-06
7.8453e-05
5.83941e-06
7.86705e-05
6.54427e-06
7.89212e-05
7.26519e-06
7.92085e-05
8.00194e-06
7.9536e-05
8.75298e-06
7.99072e-05
9.51514e-06
8.03258e-05
1.02832e-05
8.07953e-05
1.10496e-05
8.13186e-05
1.18029e-05
8.18975e-05
1.25255e-05
8.25315e-05
1.31845e-05
1.37066e-05
7.76173e-05
5.44965e-07
7.76553e-05
1.24018e-06
7.77111e-05
1.81682e-06
7.77865e-05
2.4308e-06
7.78825e-05
3.06042e-06
7.80004e-05
3.69315e-06
7.81417e-05
4.33302e-06
7.83084e-05
4.98327e-06
7.85024e-05
5.64535e-06
7.87264e-05
6.32029e-06
7.8983e-05
7.00859e-06
7.92751e-05
7.70981e-06
7.96058e-05
8.4223e-06
7.99781e-05
9.14281e-06
8.03951e-05
9.86628e-06
8.08594e-05
1.05853e-05
8.13733e-05
1.1289e-05
8.1938e-05
1.19608e-05
8.25523e-05
1.25702e-05
1.3049e-05
7.76273e-05
5.27563e-07
7.76669e-05
1.20057e-06
7.77251e-05
1.75864e-06
7.78035e-05
2.35239e-06
7.79033e-05
2.96062e-06
7.80255e-05
3.57095e-06
7.81715e-05
4.18706e-06
7.83429e-05
4.81187e-06
7.85416e-05
5.44657e-06
7.877e-05
6.09198e-06
7.90301e-05
6.74839e-06
7.93247e-05
7.41523e-06
7.96563e-05
8.09075e-06
8.00273e-05
8.77174e-06
8.04404e-05
9.45325e-06
8.08975e-05
1.01281e-05
8.14003e-05
1.07862e-05
8.19494e-05
1.14117e-05
8.25433e-05
1.19763e-05
1.24168e-05
7.76368e-05
5.0963e-07
7.76776e-05
1.15975e-06
7.77376e-05
1.69868e-06
7.78183e-05
2.27169e-06
7.79208e-05
2.85807e-06
7.80461e-05
3.44566e-06
7.81953e-05
4.03783e-06
7.837e-05
4.63722e-06
7.85718e-05
5.2448e-06
7.88026e-05
5.86119e-06
7.90644e-05
6.48655e-06
7.93594e-05
7.12021e-06
7.96898e-05
7.76037e-06
8.00576e-05
8.4039e-06
8.04649e-05
9.04599e-06
8.09132e-05
9.67983e-06
8.14037e-05
1.02957e-05
8.19364e-05
1.0879e-05
8.25096e-05
1.14031e-05
1.18095e-05