/*--------------------------------*- C++ -*----------------------------------*\
  =========                 |
  \\      /  F ield         | OpenFOAM: The Open Source CFD Toolbox
   \\    /   O peration     | Website:  https://openfoam.org
    \\  /    A nd           | Version:  6
     \\/     M anipulation  |
\*---------------------------------------------------------------------------*/
FoamFile
{
    version     2.0;
    format      ascii;
    class       volVectorField;
    location    "0.2";
    object      U;
}
// * * * * * * * * * * * * * * * * * * * * * * * * * * * * * * * * * * * * * //

dimensions      [0 1 -1 0 0 0 0];

internalField   nonuniform List<vector> 
5600
(
(0.972185 0.000197998 3.75719e-19)
(0.991495 0.000742349 -6.44737e-18)
(0.998264 0.00122581 6.43259e-18)
(0.995222 0.00175156 0)
(0.991435 0.00229255 0)
(0.988066 0.00283871 0)
(0.984191 0.00341267 -1.19984e-17)
(0.979481 0.00403019 1.19712e-17)
(0.973946 0.00469882 0)
(0.967573 0.00542728 0)
(0.960286 0.00622725 0)
(0.951994 0.00711224 0)
(0.942592 0.00809736 0)
(0.931957 0.00919942 -2.36215e-17)
(0.919949 0.0104365 2.35686e-17)
(0.906401 0.0118262 -4.7033e-17)
(0.891134 0.0133807 4.69281e-17)
(0.873957 0.0150957 0)
(0.854685 0.0169289 -3.65009e-19)
(0.833181 0.0187452 0)
(0.972351 0.000798563 -3.70481e-19)
(0.991822 0.00237397 6.35807e-18)
(0.998282 0.00375225 -6.34585e-18)
(0.995149 0.00522777 0)
(0.991428 0.00677843 0)
(0.988121 0.00837646 2.44956e-17)
(0.98429 0.0100553 7.42007e-23)
(0.979634 0.0118502 -7.39369e-19)
(0.974173 0.0137868 1.12536e-22)
(0.96789 0.0158932 -2.35731e-17)
(0.960715 0.018203 0)
(0.952561 0.020755 -4.77023e-17)
(0.943327 0.0235926 4.68795e-17)
(0.9329 0.0267641 0)
(0.921146 0.0303207 0)
(0.907911 0.0343114 0)
(0.893024 0.0387688 0)
(0.876304 0.0436777 -4.64423e-17)
(0.857566 0.0489152 4.67173e-17)
(0.836584 0.0541369 4.55767e-17)
(0.972949 0.00151715 0)
(0.992114 0.00400305 0)
(0.998324 0.00622555 0)
(0.99518 0.00866313 0)
(0.991539 0.0112182 2.34734e-17)
(0.988318 0.0138482 -2.41711e-17)
(0.984586 0.0166123 -1.46275e-18)
(0.980058 0.0195657 -7.30295e-19)
(0.97476 0.0227505 2.33352e-17)
(0.968681 0.0262128 -2.18445e-17)
(0.961755 0.0300078 -1.45416e-18)
(0.953905 0.0341985 4.7191e-17)
(0.945042 0.0388555 -4.78464e-17)
(0.935066 0.0440563 1.44777e-18)
(0.92386 0.0498829 4.62612e-17)
(0.911289 0.056413 -9.38303e-17)
(0.8972 0.0636975 -1.44198e-18)
(0.881426 0.0717108 4.60585e-17)
(0.863779 0.0802547 -1.43723e-18)
(0.843955 0.0887943 -7.1795e-19)
(0.973981 0.00218707 0)
(0.992486 0.00565093 -1.44833e-18)
(0.998394 0.00870657 0)
(0.995306 0.0120499 0)
(0.991792 0.0155625 0)
(0.988704 0.0191858 0)
(0.985135 0.0229953 1.44123e-18)
(0.980817 0.0270647 2.4477e-17)
(0.975785 0.031451 -2.30146e-17)
(0.970033 0.0362175 -1.43701e-18)
(0.963507 0.0414389 2.8712e-18)
(0.956141 0.0472003 0)
(0.947865 0.0535963 -4.44168e-17)
(0.938599 0.0607308 4.4373e-17)
(0.928251 0.0687128 4.57601e-17)
(0.916715 0.077645 -4.57149e-17)
(0.903864 0.0875954 9.27687e-17)
(0.889554 0.098531 -9.12513e-17)
(0.873612 0.110189 1.42443e-18)
(0.855682 0.121876 1.42362e-18)
(0.975453 0.00284332 -5.62516e-18)
(0.992976 0.00728431 7.1022e-18)
(0.998488 0.0111409 -1.13584e-17)
(0.995514 0.0153331 -1.13538e-17)
(0.992187 0.0197466 2.26981e-17)
(0.989287 0.0243077 2.26888e-17)
(0.985948 0.0291034 -2.26793e-17)
(0.981926 0.0342229 1.41686e-18)
(0.977263 0.0397374 1.41627e-18)
(0.971962 0.0457251 4.53019e-17)
(0.965983 0.0522776 -9.05656e-17)
(0.959278 0.0594985 1.41421e-18)
(0.951799 0.0675024 4.66584e-17)
(0.943493 0.0764144 1.41329e-18)
(0.9343 0.0863649 -4.37938e-17)
(0.924152 0.0974761 4.80111e-17)
(0.912959 0.109829 1.41148e-18)
(0.90061 0.123383 0)
(0.886967 0.137819 1.41027e-18)
(0.871656 0.152307 1.41007e-18)
(0.977368 0.0034894 5.50458e-18)
(0.993583 0.00887463 -5.56129e-18)
(0.9986 0.0134836 1.39056e-18)
(0.995796 0.0184626 0)
(0.992719 0.0237111 2.22585e-17)
(0.990062 0.0291416 -2.22631e-17)
(0.987019 0.0348493 1.39173e-18)
(0.983374 0.0409367 -4.73288e-17)
(0.979178 0.0474871 -2.78477e-18)
(0.974443 0.054591 8.91254e-17)
(0.969147 0.0623534 -4.73573e-17)
(0.963264 0.0708919 -1.39315e-18)
(0.956772 0.0803357 -4.73763e-17)
(0.94965 0.0908246 -4.59921e-17)
(0.941877 0.102503 8.78191e-17)
(0.933428 0.115505 8.64424e-17)
(0.924262 0.129918 -9.06416e-17)
(0.914306 0.145696 8.78699e-17)
(0.903475 0.162464 -1.79957e-16)
(0.891406 0.179283 8.79165e-17)
(0.97972 0.00411682 0)
(0.994299 0.0103987 0)
(0.998727 0.0156997 -1.35954e-18)
(0.996148 0.021392 2.1772e-17)
(0.99338 0.0273978 -2.17912e-17)
(0.991019 0.0336171 -1.36316e-18)
(0.988332 0.0401496 -1.36437e-18)
(0.985139 0.0471084 1.36558e-18)
(0.981496 0.0545862 1.36678e-18)
(0.97743 0.0626825 0)
(0.972935 0.0715116 4.51831e-17)
(0.96801 0.0811998 1.94534e-22)
(0.962664 0.0918847 -4.25191e-17)
(0.95691 0.103713 -8.64858e-17)
(0.950771 0.116836 1.7587e-16)
(0.944272 0.131389 -8.66365e-17)
(0.937424 0.14746 8.80888e-17)
(0.930199 0.164995 -8.67873e-17)
(0.922574 0.183579 -8.82417e-17)
(0.914224 0.202192 8.69423e-17)
(0.982499 0.00470938 0)
(0.99512 0.0118366 1.32496e-18)
(0.998866 0.0177595 -2.12333e-17)
(0.996567 0.0240761 2.25966e-17)
(0.994164 0.03075 -2.13017e-17)
(0.992147 0.0376677 2.4003e-17)
(0.989871 0.0449271 0)
(0.987193 0.0526483 1.3378e-18)
(0.984177 0.0609307 0)
(0.98086 0.0698787 -1.34212e-18)
(0.977259 0.0796108 4.30174e-17)
(0.973398 0.0902565 -4.30867e-17)
(0.969316 0.101954 -8.63127e-17)
(0.965065 0.11485 8.51009e-17)
(0.960713 0.129091 0)
(0.956336 0.144808 0)
(0.952003 0.162083 8.68713e-17)
(0.947736 0.180858 1.76679e-22)
(0.943584 0.200699 -8.71515e-17)
(0.939279 0.220567 8.86504e-17)
(0.985681 0.00522936 -4.46657e-18)
(0.996052 0.0131983 4.51673e-18)
(0.999017 0.0196756 0)
(0.997052 0.0265151 -1.9449e-18)
(0.995074 0.0337729 -2.0795e-17)
(0.993443 0.0413122 -2.21473e-17)
(0.991622 0.0492153 8.35769e-17)
(0.989507 0.0576053 -4.31972e-17)
(0.987169 0.066586 -4.19885e-17)
(0.984658 0.0762631 4.34043e-17)
(0.982011 0.0867537 -8.43803e-17)
(0.979278 0.0981833 1.69166e-16)
(0.976527 0.110684 1.96808e-22)
(0.97385 0.12439 -8.49905e-17)
(0.971357 0.139433 0)
(0.96918 0.155928 8.54013e-17)
(0.967447 0.173946 -1.71215e-16)
(0.966243 0.193434 8.58146e-17)
(0.965728 0.213963 0)
(0.965746 0.234489 0)
(0.989247 0.00566697 -5.57977e-18)
(0.997179 0.0145002 4.3902e-18)
(0.999205 0.0214502 0)
(0.997636 0.0287123 2.08279e-17)
(0.996166 0.0364891 -2.02611e-17)
(0.994964 0.0445982 -4.06516e-17)
(0.993629 0.053088 -5.29976e-23)
(0.992113 0.0620832 8.18244e-17)
(0.990491 0.0716929 -8.20871e-17)
(0.988819 0.0820225 4.11756e-17)
(0.987154 0.0931844 -8.26167e-17)
(0.985569 0.105296 8.28834e-17)
(0.984158 0.118475 -8.31518e-17)
(0.983045 0.132836 8.34214e-17)
(0.982379 0.148483 8.36925e-17)
(0.982345 0.165496 -8.39649e-17)
(0.983139 0.183914 0)
(0.984945 0.203701 -8.45137e-17)
(0.988049 0.224566 8.47906e-17)
(0.992425 0.245479 8.50453e-17)
(0.8062 0.0203236 0)
(0.769568 0.0224867 0)
(0.725589 0.0249654 4.24932e-17)
(0.67226 0.0278062 -2.30652e-17)
(0.606912 0.031009 -2.5222e-17)
(0.526169 0.0344127 4.17256e-17)
(0.426476 0.037458 -1.54968e-17)
(0.304487 0.0388229 3.49709e-17)
(0.15923 0.0358754 0)
(0.0443953 0.0202586 0)
(0.810352 0.0589913 -1.84383e-17)
(0.774543 0.0655806 -5.94291e-17)
(0.731373 0.0731552 -2.1374e-17)
(0.678981 0.0818563 2.32028e-17)
(0.614699 0.0916888 2.53685e-17)
(0.535105 0.102157 -5.59456e-17)
(0.436514 0.111579 4.67363e-17)
(0.315327 0.115902 -8.78426e-17)
(0.169561 0.106812 -1.00596e-17)
(0.0504745 0.0605197 6.43128e-17)
(0.819252 0.0967843 1.85143e-17)
(0.784969 0.107644 -1.98918e-17)
(0.743359 0.120153 4.29272e-17)
(0.692786 0.134519 4.66059e-17)
(0.63057 0.150747 -5.09651e-17)
(0.553199 0.168006 -2.81021e-17)
(0.456725 0.183512 3.13102e-17)
(0.336907 0.190526 -5.29733e-17)
(0.190101 0.175001 8.09121e-17)
(0.0626455 0.0993294 -1.5291e-16)
(0.8333 0.132815 3.70552e-17)
(0.80112 0.147785 0)
(0.761697 0.165022 0)
(0.713703 0.184769 -4.6641e-17)
(0.654424 0.207035 5.10033e-17)
(0.580207 0.230648 1.95067e-21)
(0.486709 0.251742 0)
(0.368711 0.260994 7.06943e-17)
(0.220288 0.239014 -6.07357e-17)
(0.0805271 0.13552 1.88371e-16)
(0.852297 0.165824 -3.69597e-17)
(0.822702 0.184606 0)
(0.785991 0.20625 8.56779e-17)
(0.74123 0.23099 0)
(0.685635 0.258833 5.08472e-17)
(0.615359 0.288271 5.60711e-17)
(0.525552 0.314384 0)
(0.409737 0.3254 1.40886e-16)
(0.259104 0.297088 -2.017e-17)
(0.103457 0.168011 -7.03528e-17)
(0.875627 0.194889 1.82807e-21)
(0.848999 0.217079 -1.57856e-16)
(0.815433 0.242707 -2.44737e-21)
(0.774448 0.271947 0)
(0.723148 0.304805 -5.05136e-17)
(0.65745 0.339437 -5.56824e-17)
(0.571896 0.369904 0)
(0.458522 0.382149 -1.39804e-16)
(0.305119 0.347663 -1.60001e-16)
(0.130536 0.195875 2.32383e-17)
(0.902405 0.219375 6.92244e-22)
(0.879011 0.244519 1.01817e-21)
(0.848919 0.273649 1.68665e-16)
(0.812128 0.30684 -1.19869e-21)
(0.765582 0.344087 -9.9991e-17)
(0.704925 0.383199 -1.1018e-16)
(0.624009 0.417253 -3.06578e-17)
(0.513211 0.430085 3.4537e-17)
(0.356549 0.38956 1.18492e-16)
(0.160635 0.218374 2.29198e-16)
(0.931608 0.238945 -1.60748e-21)
(0.911525 0.266622 7.72196e-17)
(0.885106 0.298763 -1.6651e-16)
(0.852788 0.335345 -4.51563e-17)
(0.811276 0.376327 2.46584e-16)
(0.755937 0.419156 1.08629e-16)
(0.679886 0.455952 -1.20811e-16)
(0.571722 0.468652 0)
(0.411435 0.422185 3.88382e-17)
(0.192489 0.235095 -4.05166e-16)
(0.962153 0.253681 -1.13387e-21)
(0.944944 0.283455 -7.60236e-17)
(0.92222 0.318165 3.67661e-21)
(0.894516 0.357632 -8.88384e-17)
(0.858211 0.401752 9.69716e-17)
(0.808454 0.44759 5.33668e-17)
(0.737578 0.486342 5.9313e-17)
(0.63225 0.498248 -3.33463e-17)
(0.468075 0.445918 3.80441e-17)
(0.224853 0.246134 1.76148e-16)
(0.992058 0.265019 -6.95518e-17)
(0.976688 0.296375 -7.46224e-17)
(0.957846 0.333259 8.0393e-17)
(0.93494 0.375134 8.71129e-17)
(0.904155 0.421707 -1.90094e-16)
(0.860463 0.46958 0)
(0.79521 0.509058 0)
(0.692749 0.51904 -3.25962e-17)
(0.523938 0.460682 3.71384e-17)
(0.25578 0.251252 0)
(1.02008 0.282965 6.80212e-17)
(1.00574 0.315113 7.30607e-17)
(0.990616 0.352263 0)
(0.971741 0.394357 -8.54543e-17)
(0.945551 0.440306 0)
(0.906596 0.485993 -1.02816e-16)
(0.845089 0.521209 -5.71873e-17)
(0.743314 0.524981 -6.43785e-17)
(0.568934 0.459884 -1.47134e-16)
(0.279804 0.247067 1.70691e-16)
(1.05085 0.298687 1.49667e-21)
(1.04013 0.331158 -1.48586e-16)
(1.02865 0.367722 2.10882e-21)
(1.01339 0.408777 8.6939e-17)
(0.990756 0.452356 0)
(0.954565 0.493564 1.04673e-16)
(0.893791 0.521809 0)
(0.789052 0.516749 1.3122e-16)
(0.606378 0.443696 1.45768e-20)
(0.297781 0.233246 -1.7419e-16)
(1.08303 0.309692 7.01464e-17)
(1.07641 0.341589 -7.53609e-17)
(1.06848 0.376973 2.43875e-16)
(1.05646 0.416086 -8.82237e-17)
(1.03652 0.456258 -9.64238e-17)
(1.00174 0.491961 -5.31395e-17)
(0.939979 0.512402 2.35219e-21)
(0.830555 0.498147 6.66793e-17)
(0.638587 0.417708 2.67022e-16)
(0.311635 0.213795 4.43168e-17)
(1.11626 0.31512 -1.41964e-16)
(1.1135 0.345794 0)
(1.10882 0.379347 -4.1956e-21)
(1.09947 0.415658 8.93116e-17)
(1.08129 0.451511 2.44105e-16)
(1.04662 0.480953 5.38212e-17)
(0.982377 0.493255 1.1989e-16)
(0.866902 0.470228 -1.01384e-16)
(0.664932 0.384 -1.93469e-16)
(0.321268 0.190543 1.79913e-16)
(1.14983 0.31461 7.16542e-17)
(1.15048 0.343499 7.69883e-17)
(1.14852 0.374595 -1.6615e-16)
(1.14106 0.407334 -4.50982e-17)
(1.12347 0.438087 -1.97241e-16)
(1.08743 0.46068 -1.63131e-16)
(1.01905 0.464733 -2.42319e-16)
(0.896118 0.4337 1.36669e-16)
(0.683703 0.343776 0)
(0.32606 0.164622 -2.0485e-16)
(1.18276 0.307909 1.08217e-16)
(1.18624 0.334532 0)
(1.18626 0.36264 0)
(1.1797 0.391199 0)
(1.16141 0.416304 0)
(1.1224 0.431756 1.09572e-16)
(1.04824 0.427803 1.22097e-16)
(0.916629 0.389894 0)
(0.693811 0.298637 0)
(0.325786 0.137194 -9.1838e-17)
(1.21401 0.295018 -3.62261e-17)
(1.2196 0.318989 -9.36823e-22)
(1.22071 0.343693 -4.20098e-17)
(1.21391 0.367651 4.56159e-17)
(1.1935 0.386824 -4.98915e-17)
(1.14994 0.395181 1.37591e-16)
(1.06853 0.383851 -3.06696e-17)
(0.927404 0.340543 6.92175e-17)
(0.694806 0.250419 -1.98332e-17)
(0.320579 0.109409 9.23492e-17)
(1.24257 0.27621 7.25663e-17)
(1.24941 0.297252 -3.89872e-17)
(1.25058 0.318273 0)
(1.24231 0.337406 -4.56923e-17)
(1.21833 0.350632 0)
(1.16876 0.352263 -5.51326e-17)
(1.07891 0.334519 -3.07219e-17)
(0.927918 0.287541 3.4671e-17)
(0.686759 0.200981 0)
(0.310827 0.082315 -1.15668e-17)
(1.26751 0.251993 -5.43646e-17)
(1.27468 0.269964 3.89434e-17)
(1.27484 0.287172 0)
(1.26386 0.301451 0)
(1.23502 0.30895 4.99153e-17)
(1.17823 0.304491 -2.75329e-17)
(1.07919 0.281558 -3.06841e-17)
(0.918479 0.232808 -6.92602e-17)
(0.670404 0.152113 3.96913e-17)
(0.297174 0.0568447 -5.19769e-17)
(1.28795 0.223157 5.41617e-17)
(1.29469 0.237939 -6.29165e-22)
(1.29292 0.251218 -2.0933e-17)
(1.27813 0.260666 0)
(1.24326 0.262766 -2.48581e-17)
(1.17821 0.253035 -1.37088e-17)
(1.06941 0.226392 3.81941e-17)
(0.899387 0.178004 8.61942e-18)
(0.646235 0.105469 -4.44485e-17)
(0.280002 0.0338184 5.17278e-17)
(1.03172 0.259024 -4.18735e-16)
(1.06027 0.273307 1.03577e-16)
(1.08934 0.283522 0)
(1.11925 0.288828 1.02453e-16)
(1.14961 0.288908 -3.03955e-23)
(1.17953 0.283531 -1.56633e-18)
(1.20816 0.272646 7.79217e-19)
(1.23461 0.256431 -5.00489e-17)
(1.25814 0.23526 4.98909e-17)
(1.27776 0.209834 -2.46979e-17)
(1.04047 0.245896 2.08823e-16)
(1.06675 0.257612 0)
(1.09333 0.265975 0)
(1.12058 0.270155 1.00713e-16)
(1.14835 0.269803 1.57462e-18)
(1.17583 0.264709 -7.82329e-19)
(1.20225 0.254814 7.78539e-19)
(1.22687 0.240244 4.88498e-17)
(1.24909 0.221291 -4.94725e-17)
(1.26785 0.198571 2.46837e-17)
(1.04891 0.23483 0)
(1.07261 0.244366 -1.03212e-16)
(1.09668 0.25084 1.02276e-16)
(1.12135 0.253745 -1.01468e-16)
(1.14658 0.252744 0)
(1.17164 0.247647 -7.82629e-19)
(1.19586 0.238396 -9.89375e-17)
(1.21863 0.225086 0)
(1.23945 0.207951 0)
(1.25725 0.187521 -2.47114e-17)
(1.05638 0.224296 0)
(1.07789 0.231919 9.84483e-22)
(1.09965 0.236787 -1.02193e-16)
(1.1219 0.238593 1.0143e-16)
(1.14469 0.237026 7.87319e-19)
(1.16739 0.231913 -1.01013e-16)
(1.18947 0.223198 -4.18387e-22)
(1.21037 0.210949 0)
(1.22972 0.195356 0)
(1.24648 0.176866 0)
(1.06254 0.214141 -1.03818e-16)
(1.08221 0.220224 2.05877e-16)
(1.10196 0.223797 7.97715e-19)
(1.12207 0.22469 -1.02184e-16)
(1.14265 0.222641 -7.8733e-19)
(1.16319 0.217501 -1.00264e-16)
(1.18323 0.209224 1.5054e-16)
(1.20234 0.19786 -3.88676e-19)
(1.22021 0.183567 -4.92359e-17)
(1.23586 0.166722 -2.47677e-17)
(1.06747 0.204316 2.07246e-16)
(1.08551 0.209204 -1.02803e-16)
(1.10352 0.211772 1.02025e-16)
(1.12177 0.211944 1.00562e-16)
(1.14041 0.20951 1.02355e-16)
(1.15901 0.204351 9.95148e-17)
(1.17721 0.196438 -4.99507e-17)
(1.19465 0.185814 -3.89003e-19)
(1.21109 0.172615 3.87725e-19)
(1.22562 0.157164 2.47956e-17)
(1.07131 0.19481 -1.03832e-16)
(1.08788 0.198758 -1.02265e-16)
(1.10436 0.200556 -1.01942e-16)
(1.121 0.200183 -1.01316e-16)
(1.13795 0.19747 -9.99947e-17)
(1.15485 0.192328 9.87652e-17)
(1.1714 0.184741 -4.92008e-17)
(1.18731 0.174753 0)
(1.20241 0.162488 9.94481e-17)
(1.21586 0.148229 0)
(1.07418 0.185632 0)
(1.08942 0.188828 1.02531e-16)
(1.10455 0.190041 -1.01858e-16)
(1.1198 0.189268 7.91229e-19)
(1.13527 0.186375 -1.02358e-16)
(1.15068 0.181293 -1.00367e-16)
(1.16578 0.174017 5.0794e-17)
(1.18033 0.164595 -4.98769e-17)
(1.1942 0.153143 -9.95489e-17)
(1.20662 0.139915 0)
(1.0762 0.176792 -1.0304e-16)
(1.09025 0.179385 0)
(1.10418 0.180152 1.01775e-16)
(1.11821 0.179097 1.02031e-16)
(1.1324 0.176106 2.00374e-24)
(1.14651 0.171124 9.96171e-17)
(1.16034 0.164156 0)
(1.17368 0.155251 4.99187e-17)
(1.18644 0.144521 5.00194e-17)
(1.19792 0.132197 -2.50746e-17)
(1.0775 0.168295 1.02847e-16)
(1.09048 0.170406 -1.0226e-16)
(1.10334 0.170837 1.01692e-16)
(1.11628 0.16959 -1.00412e-16)
(1.12935 0.166565 1.99996e-16)
(1.14234 0.161717 -9.88663e-17)
(1.15505 0.155057 -7.8242e-19)
(1.16733 0.146634 -3.90316e-19)
(1.1791 0.136555 -4.94859e-17)
(1.18972 0.125038 2.49084e-17)
(1.07817 0.160143 0)
(1.09018 0.161868 1.02125e-16)
(1.1021 0.162048 -1.01609e-16)
(1.11409 0.160678 -7.90341e-19)
(1.12617 0.157669 -9.92117e-17)
(1.13817 0.152982 -7.84928e-19)
(1.14991 0.146629 -7.82892e-19)
(1.16126 0.138661 7.81301e-19)
(1.17214 0.129181 4.9926e-17)
(1.18199 0.118391 2.49368e-17)
(1.07832 0.152335 1.02863e-16)
(1.08946 0.153751 -3.98404e-19)
(1.10053 0.153746 0)
(1.11168 0.152306 0)
(1.1229 0.14935 7.87396e-19)
(1.13402 0.144842 -5.18225e-17)
(1.14492 0.138796 1.04456e-23)
(1.15544 0.13126 5.04361e-17)
(1.16554 0.122336 3.90446e-19)
(1.1747 0.112211 -2.4965e-17)
(1.07802 0.144862 -1.02272e-16)
(1.08839 0.146034 -1.01856e-16)
(1.09871 0.145896 -1.01443e-16)
(1.1091 0.144427 -7.89748e-19)
(1.11955 0.14155 1.05112e-23)
(1.12991 0.137233 5.02692e-17)
(1.14006 0.13149 7.8387e-19)
(1.14986 0.124368 1.34979e-22)
(1.15927 0.115961 0)
(1.16782 0.10645 0)
(1.07736 0.137716 -1.0248e-16)
(1.08704 0.138696 2.03842e-16)
(1.09668 0.138466 1.0136e-16)
(1.1064 0.136997 0)
(1.11617 0.134218 -1.00002e-16)
(1.12586 0.1301 4.95005e-17)
(1.13534 0.124654 0)
(1.14451 0.117926 -5.0521e-17)
(1.15331 0.110007 -2.4648e-17)
(1.16131 0.101066 0)
(1.0764 0.130887 1.02289e-16)
(1.08545 0.131715 -1.01986e-16)
(1.09449 0.131425 0)
(1.10362 0.129979 1.00223e-16)
(1.11279 0.127313 1.0079e-16)
(1.12187 0.123396 -1.00607e-16)
(1.13077 0.11824 -4.94445e-17)
(1.13937 0.111888 0)
(1.14763 0.104428 2.50646e-17)
(1.15515 0.096018 0)
(1.0752 0.12436 1.01701e-16)
(1.08369 0.125072 0)
(1.09219 0.124746 0)
(1.10079 0.123341 -1.00185e-16)
(1.10942 0.120794 -8.58449e-24)
(1.11797 0.117078 4.87478e-17)
(1.12635 0.112203 5.10456e-17)
(1.13445 0.106211 -3.92295e-19)
(1.14223 0.099184 1.9602e-19)
(1.14932 0.0912721 1.95931e-19)
(1.07381 0.118124 -2.03026e-16)
(1.0818 0.118746 1.01322e-16)
(1.08982 0.118405 7.89929e-19)
(1.09794 0.117052 -7.88566e-19)
(1.10609 0.11463 -5.03958e-17)
(1.11416 0.111112 0)
(1.12208 0.106508 0)
(1.12973 0.100858 5.02564e-17)
(1.13708 0.0942406 0)
(1.14379 0.0867965 0)
(1.07226 0.112164 1.01721e-16)
(1.07982 0.112719 -1.01585e-16)
(1.0874 0.112376 7.89284e-19)
(1.09509 0.111085 -1.02474e-16)
(1.10281 0.108789 5.11835e-17)
(1.11046 0.105465 0)
(1.11796 0.101122 -7.86284e-19)
(1.12521 0.095798 -4.99058e-17)
(1.13218 0.0895674 1.96419e-19)
(1.13855 0.0825637 1.96378e-19)
(1.07061 0.106466 -1.01532e-16)
(1.07777 0.106972 3.94755e-19)
(1.08496 0.106638 -1.00946e-16)
(1.09227 0.105414 1.00859e-16)
(1.0996 0.103245 7.8744e-19)
(1.10687 0.10011 -7.87057e-19)
(1.11399 0.0960171 4.95667e-17)
(1.12089 0.0910025 7.86585e-19)
(1.12752 0.0851379 0)
(1.13358 0.0785492 0)
(1.06889 0.101018 -3.94127e-19)
(1.07568 0.101487 1.01319e-16)
(1.08253 0.101171 1.00864e-16)
(1.08949 0.100017 -1.01609e-16)
(1.09647 0.0979737 5.11841e-17)
(1.1034 0.0950211 0)
(1.11019 0.0911672 -5.03845e-17)
(1.11676 0.0864471 -3.93622e-19)
(1.12308 0.0809288 3.93636e-19)
(1.12887 0.0747316 0)
(1.06711 0.0958044 3.93794e-19)
(1.07358 0.0962479 -1.01186e-16)
(1.08012 0.0959555 -1.00781e-16)
(1.08676 0.0948727 1.00783e-16)
(1.09343 0.0929527 -1.00794e-16)
(1.10005 0.0901759 0)
(1.10654 0.0865503 0)
(1.11283 0.0821098 -3.93954e-19)
(1.11887 0.0769194 -2.50213e-17)
(1.12441 0.071092 2.54198e-17)
(1.06531 0.090813 1.00185e-16)
(1.07149 0.0912387 -1.00267e-16)
(1.07775 0.0909735 1.00699e-16)
(1.08411 0.0899627 -5.11592e-17)
(1.0905 0.0881624 7.87456e-19)
(1.09683 0.0855543 0)
(1.10305 0.0821463 -5.04467e-17)
(1.10908 0.0779714 -3.94287e-19)
(1.11486 0.0730915 2.56385e-17)
(1.12018 0.0676136 -2.52516e-17)
(1.0635 0.0860308 0)
(1.06943 0.0864446 1.00529e-16)
(1.07543 0.0862088 -1.00616e-16)
(1.08153 0.0852693 5.11397e-17)
(1.08766 0.0835845 4.96098e-17)
(1.09375 0.0811378 0)
(1.09972 0.0779373 4.96891e-17)
(1.10551 0.0740145 3.94626e-19)
(1.11107 0.0694289 1.97423e-19)
(1.11619 0.0642817 1.97505e-19)
(1.06171 0.0814454 3.91433e-19)
(1.0674 0.0818515 -3.9218e-19)
(1.07317 0.0816461 1.00534e-16)
(1.07904 0.0807762 7.86462e-19)
(1.08494 0.0792026 -5.03974e-17)
(1.09079 0.0769101 4.96679e-17)
(1.09654 0.073907 -4.97198e-17)
(1.10211 0.0702236 2.40923e-17)
(1.10747 0.065917 5.92869e-19)
(1.11241 0.061083 -1.97732e-19)
(1.05994 0.0770449 9.9632e-17)
(1.06542 0.0774462 3.91668e-19)
(1.07098 0.0772713 0)
(1.07664 0.0764686 0)
(1.08233 0.0750015 7.54951e-25)
(1.08797 0.0728561 -5.04732e-17)
(1.09352 0.0700407 1.00291e-16)
(1.0989 0.0665848 3.95316e-19)
(1.10406 0.0625428 1.97827e-19)
(1.10883 0.0580057 1.28673e-17)
(1.05821 0.072818 -9.9449e-17)
(1.06349 0.073216 -3.91156e-19)
(1.06886 0.073071 -5.01847e-17)
(1.07433 0.0723328 0)
(1.07983 0.0709673 5.03976e-17)
(1.08529 0.068962 0)
(1.09065 0.0663251 -4.97812e-17)
(1.09585 0.0630853 -2.65069e-17)
(1.10084 0.0592946 3.96057e-19)
(1.10546 0.0550392 1.54268e-23)
(1.05653 0.0687537 -1.00045e-16)
(1.06163 0.0691493 3.90646e-19)
(1.06683 0.0690329 5.01436e-17)
(1.07213 0.0683562 -7.85559e-19)
(1.07745 0.0670875 7.87465e-19)
(1.08273 0.0652153 0)
(1.08792 0.0627482 -7.90662e-19)
(1.09296 0.0597139 3.95964e-19)
(1.0978 0.0561619 1.98233e-19)
(1.10228 0.052174 -1.25001e-17)
(1.0549 0.0648415 9.90844e-17)
(1.05985 0.0652349 3.90137e-19)
(1.06489 0.0651454 -7.8285e-19)
(1.07002 0.064527 1.57052e-18)
(1.07518 0.0633501 -7.87465e-19)
(1.08031 0.0616046 0)
(1.08535 0.0592989 -2.53169e-17)
(1.09023 0.05646 0)
(1.09493 0.053135 0)
(1.09929 0.0494014 1.27132e-17)
(1.05333 0.0610717 4.96453e-17)
(1.05813 0.0614624 0)
(1.06303 0.0613978 0)
(1.06802 0.0608343 -7.84955e-19)
(1.07303 0.0597444 -4.96102e-17)
(1.07802 0.0581192 0)
(1.08291 0.0559671 2.61241e-17)
(1.08766 0.0533142 -1.1899e-18)
(1.09223 0.0502053 3.97278e-19)
(1.09647 0.0467138 -1.27278e-17)
(1.05182 0.0574348 -9.94961e-17)
(1.0565 0.0578218 3.89121e-19)
(1.06126 0.05778 7.81568e-19)
(1.06612 0.057268 -5.17872e-17)
(1.071 0.0562604 1.0237e-16)
(1.07585 0.0547494 -7.89965e-19)
(1.08061 0.0527435 2.53481e-17)
(1.08524 0.0502677 -3.96968e-19)
(1.08969 0.0473648 1.98844e-19)
(1.09383 0.0441039 1.99103e-19)
(1.05039 0.0539217 4.90775e-17)
(1.05494 0.0543038 3.88615e-19)
(1.05959 0.0542825 0)
(1.06432 0.0538186 4.94142e-17)
(1.06908 0.0528888 -4.96101e-17)
(1.07381 0.0514862 2.52872e-17)
(1.07845 0.0496195 7.36729e-24)
(1.08297 0.0473126 -3.97305e-19)
(1.0873 0.0446062 3.98096e-19)
(1.09135 0.0415653 0)
(1.04902 0.0505239 -3.8573e-19)
(1.05346 0.0508997 3.88109e-19)
(1.058 0.0508964 0)
(1.06262 0.0504772 -5.01791e-17)
(1.06727 0.0496209 7.87458e-19)
(1.07189 0.0483213 -5.13818e-17)
(1.07643 0.0465873 -2.53794e-17)
(1.08083 0.0444416 -2.58469e-17)
(1.08507 0.0419228 1.99254e-19)
(1.08903 0.0390921 1.99564e-19)
(1.04773 0.0472331 -4.96685e-17)
(1.05207 0.0476011 5.00009e-17)
(1.05651 0.0476134 0)
(1.06103 0.0472357 5.09435e-17)
(1.06557 0.0464486 -7.8746e-19)
(1.07009 0.045247 2.53041e-17)
(1.07453 0.0436394 0)
(1.07884 0.0416478 2.50729e-17)
(1.08298 0.0393084 5.98374e-19)
(1.08686 0.0366789 -1.99795e-19)
(1.04651 0.0440416 4.88094e-17)
(1.05076 0.0444001 3.87075e-19)
(1.05511 0.0444255 7.79008e-19)
(1.05954 0.0440863 -7.83444e-19)
(1.06398 0.0433645 0)
(1.06841 0.042256 2.53125e-17)
(1.07276 0.0407692 -2.62048e-17)
(1.07698 0.0389249 2.58908e-17)
(1.08104 0.0367574 1.99665e-19)
(1.08484 0.0343205 1.30017e-17)
(1.04537 0.040942 -4.91041e-17)
(1.04954 0.0412891 -4.94845e-17)
(1.0538 0.0413254 0)
(1.05814 0.0410216 0)
(1.0625 0.0403615 0)
(1.06684 0.0393416 -5.06418e-17)
(1.07111 0.0379702 7.9457e-19)
(1.07525 0.0362671 -2.67102e-17)
(1.07923 0.0342645 3.9974e-19)
(1.08297 0.0320125 -1.28166e-17)
(1.0443 0.037927 -3.82898e-19)
(1.0484 0.0382611 3.86097e-19)
(1.05258 0.038306 -7.77731e-19)
(1.05684 0.0380347 7.82835e-19)
(1.06113 0.0374328 7.87448e-19)
(1.06539 0.0364974 -7.91543e-19)
(1.06958 0.0352365 2.46471e-17)
(1.07365 0.0336689 3.99002e-19)
(1.07756 0.0318246 4.00153e-19)
(1.08123 0.0297503 0)
(1.04331 0.03499 4.85435e-17)
(1.04733 0.0353092 3.85596e-19)
(1.05145 0.0353605 2.4867e-17)
(1.05564 0.0351192 7.82527e-19)
(1.05986 0.0345722 -3.42019e-24)
(1.06405 0.0337174 -7.91805e-19)
(1.06817 0.0325625 0)
(1.07217 0.0311252 0)
(1.07601 0.0294333 1.28181e-17)
(1.07963 0.02753 0)
(1.0424 0.0321243 3.81537e-19)
(1.04636 0.0324271 -3.85096e-19)
(1.05041 0.0324827 -2.56231e-17)
(1.05454 0.0322688 3.28561e-24)
(1.05869 0.0317738 7.87443e-19)
(1.06281 0.0309961 2.53461e-17)
(1.06687 0.029943 2.54736e-17)
(1.07081 0.0286311 -3.99678e-19)
(1.07459 0.0270862 -1.24304e-17)
(1.07816 0.0253479 0)
(1.04155 0.0293237 -3.80845e-19)
(1.04546 0.0296084 3.84597e-19)
(1.04946 0.0296664 -2.48262e-17)
(1.05353 0.0294777 0)
(1.05761 0.029032 0)
(1.06168 0.0283281 0)
(1.06568 0.027373 -2.54893e-17)
(1.06956 0.0261821 -1.32007e-17)
(1.0733 0.0247791 4.01398e-19)
(1.07681 0.0232003 0)
(1.04079 0.0265821 -3.80155e-19)
(1.04464 0.0268472 3.84099e-19)
(1.04859 0.0269059 2.40307e-17)
(1.0526 0.0267403 3.13691e-24)
(1.05664 0.0263413 7.87434e-19)
(1.06065 0.0257083 0)
(1.0646 0.0248478 7.9703e-19)
(1.06843 0.0237739 1.16105e-17)
(1.07212 0.0225083 -1.24562e-17)
(1.07559 0.0210839 0)
(1.04009 0.0238938 0)
(1.0439 0.0241378 2.45505e-17)
(1.04781 0.0241956 2.47855e-17)
(1.05177 0.0240511 -7.81306e-19)
(1.05576 0.0236967 7.87428e-19)
(1.05973 0.0231319 0)
(1.06363 0.0223628 1.35579e-17)
(1.06742 0.0214024 -1.20211e-18)
(1.07106 0.02027 1.30725e-17)
(1.07449 0.0189955 2.01664e-19)
(1.03947 0.021253 -3.78781e-19)
(1.04324 0.0214747 -2.41356e-17)
(1.0471 0.02153 -2.39912e-17)
(1.05103 0.0214051 -3.01791e-24)
(1.05498 0.0210932 -7.87422e-19)
(1.0589 0.0205942 0)
(1.06276 0.0199139 -1.35663e-17)
(1.06651 0.0190636 4.01048e-19)
(1.07011 0.0180609 6.03972e-19)
(1.07351 0.0169321 -2.01899e-19)
(1.03892 0.0186545 3.78097e-19)
(1.04266 0.0188526 -3.82611e-19)
(1.04649 0.0189041 0)
(1.05038 0.0187972 0)
(1.05429 0.0185262 0)
(1.05817 0.018091 -1.26939e-17)
(1.06199 0.0174968 -1.27762e-17)
(1.06571 0.0167538 -4.01388e-19)
(1.06927 0.0158774 2.01534e-19)
(1.07264 0.0148906 2.02136e-19)
(1.03844 0.0160928 -3.77415e-19)
(1.04215 0.0162662 3.82116e-19)
(1.04595 0.0163129 1.31349e-17)
(1.04981 0.0162228 -1.32666e-17)
(1.05369 0.015991 0)
(1.05754 0.0156178 2.53962e-17)
(1.06133 0.0151076 1.2784e-17)
(1.06501 0.0144694 6.02598e-18)
(1.06854 0.0137163 -6.25403e-18)
(1.07189 0.0128684 2.02373e-19)
(1.03803 0.0135628 -1.24323e-17)
(1.04172 0.0137107 1.25935e-17)
(1.04549 0.0137515 -1.23521e-17)
(1.04933 0.0136771 2.41825e-17)
(1.05318 0.0134833 7.87402e-19)
(1.057 0.0131705 -2.54046e-17)
(1.06076 0.0127425 6.39597e-18)
(1.06441 0.0122068 -6.83529e-18)
(1.06792 0.0115745 6.86641e-18)
(1.07124 0.0108625 0)
(1.03769 0.0110595 1.24099e-17)
(1.04136 0.0111811 -3.81132e-19)
(1.04511 0.0112154 -7.71368e-19)
(1.04893 0.0111557 -1.16966e-17)
(1.05275 0.0109989 0)
(1.05656 0.0107452 1.27065e-17)
(1.06029 0.0103977 -7.19991e-18)
(1.06392 0.00996262 -5.23147e-18)
(1.06741 0.00944892 -6.06492e-19)
(1.07071 0.00887028 2.02848e-19)
(1.03742 0.00857809 -1.20122e-17)
(1.04107 0.00867272 -1.34704e-24)
(1.04481 0.00869988 7.70734e-19)
(1.04861 0.00865431 -1.55893e-18)
(1.05242 0.00853359 1.57477e-18)
(1.0562 0.00833786 -7.14973e-18)
(1.05992 0.00806957 5.60339e-18)
(1.06353 0.0077334 3.62489e-18)
(1.06699 0.00733636 3.84512e-18)
(1.07028 0.00688902 -2.03087e-19)
(1.03722 0.00611365 1.16159e-17)
(1.04086 0.00618095 -1.17846e-17)
(1.04459 0.0062005 0)
(1.04837 0.00616848 0)
(1.05217 0.0060831 7.87375e-19)
(1.05594 0.0059444 5.56272e-18)
(1.05964 0.00575411 -6.40783e-18)
(1.06323 0.00551552 2.82178e-18)
(1.06669 0.00523362 -3.03879e-18)
(1.06996 0.00491587 2.03326e-19)
(1.03709 0.00366147 3.74032e-19)
(1.04072 0.00370106 -3.79658e-19)
(1.04444 0.00371256 3.07788e-18)
(1.04822 0.00369353 -7.78848e-19)
(1.052 0.00364279 3.14947e-18)
(1.05576 0.00356033 -2.38481e-18)
(1.05945 0.00344712 0)
(1.06304 0.0033051 -4.03456e-19)
(1.06648 0.00313722 4.05597e-19)
(1.06974 0.00294788 -8.14262e-19)
(1.03702 0.00121804 -3.74391e-19)
(1.04065 0.00123049 3.80249e-19)
(1.04437 0.00123398 -3.85544e-18)
(1.04814 0.0012276 7.80883e-19)
(1.05192 0.0012109 -1.57956e-18)
(1.05567 0.00118382 1.59538e-18)
(1.05936 0.00114666 0)
(1.06294 0.00110002 -4.05112e-19)
(1.06638 0.00104485 2.03677e-19)
(1.06964 0.000982554 1.0224e-18)
(0.992608 0.00613039 0)
(0.998321 0.0152142 0)
(0.999427 0.022339 0)
(0.998288 0.0298065 0)
(0.997322 0.0378137 0)
(0.996505 0.0461539 0)
(0.995598 0.0548575 0)
(0.99461 0.0640457 0)
(0.993609 0.0738264 0)
(0.992653 0.0842987 0)
(0.991807 0.0955657 0)
(0.991154 0.107732 0)
(0.9908 0.120902 0)
(0.990876 0.135168 0)
(0.991547 0.15061 0)
(0.993015 0.167281 0)
(0.995532 0.185175 0)
(0.999456 0.204182 0)
(1.0053 0.22393 0)
(1.01287 0.24307 0)
(0.995505 0.00649428 0)
(0.999036 0.0153909 0)
(0.999605 0.0226088 0)
(0.998853 0.0302559 0)
(0.998243 0.0383437 0)
(0.99772 0.0467191 0)
(0.997159 0.0554416 0)
(0.99659 0.064619 0)
(0.996075 0.0743453 0)
(0.995673 0.0847091 0)
(0.995453 0.0958009 0)
(0.995503 0.10771 0)
(0.995932 0.120518 0)
(0.996875 0.134296 0)
(0.998497 0.149095 0)
(1.001 0.164929 0)
(1.00464 0.181746 0)
(1.00976 0.199334 0)
(1.01676 0.217095 0)
(1.02494 0.23343 0)
(0.998461 0.00670716 0)
(0.999585 0.0154961 0)
(0.999766 0.0227657 0)
(0.999412 0.030523 0)
(0.999104 0.038647 0)
(0.998852 0.0470178 0)
(0.99862 0.0557146 0)
(0.998444 0.0648334 0)
(0.998378 0.074455 0)
(0.998483 0.0846577 0)
(0.99883 0.095519 0)
(0.999508 0.107112 0)
(1.00063 0.1195 0)
(1.00231 0.13273 0)
(1.00473 0.146825 0)
(1.00807 0.161767 0)
(1.01256 0.177459 0)
(1.01848 0.193644 0)
(1.02615 0.209671 0)
(1.03495 0.224047 0)
(1.00145 0.00679842 0)
(1.00006 0.0155602 0)
(0.999897 0.0228443 0)
(0.999942 0.0306395 0)
(0.999906 0.0387631 0)
(0.999902 0.047102 0)
(0.999979 0.0557411 0)
(1.00017 0.0647676 0)
(1.00051 0.0742521 0)
(1.00108 0.0842628 0)
(1.00193 0.0948656 0)
(1.00317 0.106119 0)
(1.00488 0.11807 0)
(1.00721 0.130746 0)
(1.01029 0.144147 0)
(1.01429 0.15823 0)
(1.01942 0.172874 0)
(1.02591 0.18781 0)
(1.034 0.202416 0)
(1.04321 0.215274 0)
(1.00444 0.00681845 0)
(1.00049 0.0155517 0)
(0.999994 0.0228167 0)
(1.00043 0.0305983 0)
(1.00065 0.0386841 0)
(1.00087 0.0469574 0)
(1.00123 0.0555025 0)
(1.00175 0.0643996 0)
(1.00246 0.0737103 0)
(1.00344 0.0834933 0)
(1.00475 0.093804 0)
(1.00647 0.104688 0)
(1.0087 0.116178 0)
(1.01156 0.128285 0)