/*--------------------------------*- C++ -*----------------------------------*\
  =========                 |
  \\      /  F ield         | OpenFOAM: The Open Source CFD Toolbox
   \\    /   O peration     | Website:  https://openfoam.org
    \\  /    A nd           | Version:  6
     \\/     M anipulation  |
\*---------------------------------------------------------------------------*/
FoamFile
{
    version     2.0;
    format      ascii;
    class       surfaceScalarField;
    location    "0.05";
    object      phi;
}
// * * * * * * * * * * * * * * * * * * * * * * * * * * * * * * * * * * * * * //

dimensions      [0 3 -1 0 0 0 0];

internalField   nonuniform List<scalar> 
11030
(
0.000112383
-2.37336e-07
0.00011249
-1.07259e-07
0.00011252
-2.91864e-08
0.000112467
5.29716e-08
0.000112308
1.58466e-07
0.000112041
2.672e-07
0.00011167
3.7117e-07
0.000111199
4.71214e-07
0.000110631
5.67943e-07
0.000109969
6.61827e-07
0.000109214
7.5473e-07
0.000108364
8.49885e-07
0.000107413
9.51325e-07
0.000106349
1.06347e-06
0.000105159
1.19087e-06
0.000103821
1.33796e-06
0.000102312
1.50855e-06
0.000100607
1.70451e-06
9.86842e-05
1.92332e-06
2.14975e-06
9.65344e-05
0.000112302
-3.88827e-07
0.000112389
-1.9493e-07
0.000112394
-3.34336e-08
0.000112291
1.55194e-07
0.000112081
3.68864e-07
0.000111764
5.83843e-07
0.000111344
7.91926e-07
0.000110822
9.92675e-07
0.000110204
1.18593e-06
0.000109493
1.37299e-06
0.00010869
1.55812e-06
0.000107791
1.74808e-06
0.000106792
1.95107e-06
0.000105679
2.17596e-06
0.000104438
2.43181e-06
0.000103049
2.72731e-06
0.000101488
3.06985e-06
9.97291e-05
3.46301e-06
9.77508e-05
3.90162e-06
4.35967e-06
9.55408e-05
0.00011228
-5.07434e-07
0.000112302
-2.17671e-07
0.000112243
2.57792e-08
0.000112084
3.13854e-07
0.000111817
6.3592e-07
0.000111443
9.58075e-07
0.000110966
1.26949e-06
0.000110389
1.56893e-06
0.000109719
1.85597e-06
0.000108959
2.13307e-06
0.00010811
2.40722e-06
0.000107169
2.68896e-06
0.00010613
2.99072e-06
0.00010498
3.32575e-06
0.000103704
3.70735e-06
0.000102283
4.14822e-06
0.000100694
4.65909e-06
9.89119e-05
5.24527e-06
9.6914e-05
5.89947e-06
6.58802e-06
9.46857e-05
0.00011224
-5.71508e-07
0.000112203
-1.80683e-07
0.000112079
1.49772e-07
0.000111855
5.37719e-07
0.000111523
9.67503e-07
0.000111086
1.39561e-06
0.000110547
1.80776e-06
0.000109915
2.20187e-06
0.000109193
2.57761e-06
0.000108387
2.93911e-06
0.000107498
3.29649e-06
0.000106522
3.66424e-06
0.000105454
4.059e-06
0.000104282
4.4981e-06
0.00010299
4.99867e-06
0.000101562
5.57687e-06
9.99744e-05
6.24634e-06
9.82058e-05
7.01392e-06
9.62348e-05
7.87048e-06
8.77755e-06
9.40453e-05
0.000112194
-5.72572e-07
0.000112091
-7.77027e-08
0.000111897
3.43848e-07
0.000111602
8.32616e-07
0.000111201
1.3689e-06
0.000110696
1.90027e-06
0.000110095
2.40879e-06
0.000109406
2.89151e-06
0.000108635
3.3487e-06
0.000107787
3.7867e-06
0.000106864
4.21915e-06
0.000105864
4.66462e-06
0.000104779
5.14375e-06
0.0001036
5.67747e-06
0.000102313
6.28603e-06
0.000100901
6.98827e-06
9.93474e-05
7.80007e-06
9.7632e-05
8.72931e-06
9.57374e-05
9.76503e-06
1.08667e-05
9.36483e-05
0.000112145
-5.03395e-07
0.000111969
9.80866e-08
0.000111698
6.1423e-07
0.000111327
1.2039e-06
0.000110852
1.84422e-06
0.000110277
2.47458e-06
0.000109613
3.0733e-06
0.000108868
3.63671e-06
0.00010805
4.16622e-06
0.000107166
4.67096e-06
0.000106217
5.16844e-06
0.0001052
5.68127e-06
0.00010411
6.23368e-06
0.000102938
6.8495e-06
0.000101673
7.55123e-06
0.000100302
8.35943e-06
9.88105e-05
9.29127e-06
9.71847e-05
1.03551e-05
9.54117e-05
1.1538e-05
1.28003e-05
9.34781e-05
0.000112091
-3.58095e-07
0.000111835
3.53736e-07
0.000111481
9.68153e-07
0.000111028
1.65674e-06
0.000110476
2.39653e-06
0.000109831
3.11996e-06
0.000109103
3.80116e-06
0.000108304
4.43584e-06
0.000107443
5.02715e-06
0.000106526
5.58759e-06
0.000105556
6.13872e-06
0.00010453
6.70699e-06
0.000103444
7.31965e-06
0.000102291
8.00258e-06
0.000101063
8.77951e-06
9.97508e-05
9.67159e-06
9.83457e-05
1.06963e-05
9.68389e-05
1.18619e-05
9.5223e-05
1.31539e-05
1.4536e-05
9.34873e-05
0.000112036
-1.33862e-07
0.000111693
6.971e-07
0.000111246
1.41479e-06
0.000110707
2.1957e-06
0.000110076
3.02751e-06
0.000109359
3.83697e-06
0.000108568
4.59202e-06
0.000107716
5.28768e-06
0.000106814
5.92955e-06
0.000105868
6.53397e-06
0.00010488
7.12664e-06
0.000103849
7.73746e-06
0.000102773
8.39598e-06
0.000101646
9.12921e-06
0.000100465
9.961e-06
9.92243e-05
1.0912e-05
9.79217e-05
1.1999e-05
9.65538e-05
1.32298e-05
9.51193e-05
1.45885e-05
1.60472e-05
9.36081e-05
0.000111992
1.59265e-07
0.000111543
1.14612e-06
0.000110991
1.9671e-06
0.000110364
2.82218e-06
0.000109655
3.737e-06
0.000108865
4.62615e-06
0.000108011
5.44638e-06
0.000107106
6.19257e-06
0.000106162
6.8738e-06
0.000105185
7.51058e-06
0.000104179
8.13264e-06
0.000103144
8.77291e-06
0.000102077
9.46248e-06
0.000100978
1.02285e-05
9.98454e-05
1.10937e-05
9.86803e-05
1.20771e-05
9.74854e-05
1.31938e-05
9.6264e-05
1.44512e-05
9.50207e-05
1.58318e-05
1.72986e-05
9.37693e-05
0.000111965
5.02775e-07
0.000111372
1.73892e-06
0.000110718
2.6211e-06
0.00011001
3.5299e-06
0.000109221
4.52662e-06
0.000108356
5.49049e-06
0.000107436
6.36691e-06
0.000106475
7.15302e-06
0.000105487
7.8622e-06
0.000104478
8.5196e-06
0.000103451
9.15908e-06
0.000102408
9.81616e-06
0.000101348
1.05227e-05
0.000100272
1.13046e-05
9.9183e-05
1.21826e-05
9.80882e-05
1.31719e-05
9.69988e-05
1.42832e-05
9.59285e-05
1.55215e-05
9.48763e-05
1.6884e-05
9.38525e-05
1.83224e-05
8.67812e-05
9.75325e-06
7.68566e-05
9.92457e-06
6.67199e-05
1.01367e-05
5.63345e-05
1.03854e-05
4.56779e-05
1.06566e-05
3.47855e-05
1.08924e-05
2.38473e-05
1.09382e-05
1.33963e-05
1.04509e-05
4.60826e-06
8.78809e-06
4.60826e-06
8.58755e-05
1.94186e-05
7.603e-05
1.97701e-05
6.59725e-05
2.01941e-05
5.56693e-05
2.06886e-05
4.51019e-05
2.1224e-05
3.43107e-05
2.16836e-05
2.34883e-05
2.17606e-05
1.31658e-05
2.07734e-05
4.55901e-06
1.73949e-05
9.16726e-06
8.51159e-05
2.89884e-05
7.53571e-05
2.95289e-05
6.5384e-05
3.01672e-05
5.51646e-05
3.0908e-05
4.46815e-05
3.17071e-05
3.39766e-05
3.23884e-05
2.3245e-05
3.24922e-05
1.30212e-05
3.09972e-05
4.49997e-06
2.59161e-05
1.36672e-05
8.45627e-05
3.8471e-05
7.48846e-05
3.92069e-05
6.49901e-05
4.00618e-05
5.48465e-05
4.10516e-05
4.44344e-05
4.21192e-05
3.37937e-05
4.30291e-05
2.3119e-05
4.3167e-05
1.29468e-05
4.11694e-05
4.47021e-06
3.43927e-05
1.81374e-05
8.4241e-05
4.78782e-05
7.46327e-05
4.88152e-05
6.48058e-05
4.98887e-05
5.47245e-05
5.1133e-05
4.43642e-05
5.24794e-05
3.37604e-05
5.36329e-05
2.31049e-05
5.38225e-05
1.29385e-05
5.13357e-05
4.46377e-06
4.28675e-05
2.26012e-05
8.4135e-05
5.72213e-05
7.45861e-05
5.83642e-05
6.48162e-05
5.96585e-05
5.47828e-05
6.11664e-05
4.44539e-05
6.28084e-05
3.38581e-05
6.42287e-05
2.31845e-05
6.4496e-05
1.29816e-05
6.15386e-05
4.47231e-06
5.13768e-05
2.70735e-05
8.4198e-05
6.65106e-05
7.47008e-05
6.78614e-05
6.49796e-05
6.93797e-05
5.49808e-05
7.11653e-05
4.46634e-05
7.31258e-05
3.40484e-05
7.48437e-05
2.33236e-05
7.52209e-05
1.30499e-05
7.18123e-05
4.48193e-06
5.99448e-05
3.15555e-05
8.43584e-05
7.57603e-05
7.49068e-05
7.7313e-05
6.52283e-05
7.90583e-05
5.52515e-05
8.11421e-05
4.49274e-05
8.34498e-05
3.42705e-05
8.55006e-05
2.34699e-05
8.60214e-05
1.31056e-05
8.21766e-05
4.4732e-06
6.85772e-05
3.60287e-05
8.45105e-05
8.5019e-05
7.50988e-05
8.67247e-05
6.54548e-05
8.87022e-05
5.54883e-05
9.11086e-05
4.51469e-05
9.37913e-05
3.44381e-05
9.62093e-05
2.35551e-05
9.69045e-05
1.30989e-05
9.26327e-05
4.41807e-06
7.72581e-05
4.04467e-05
8.44639e-05
9.44076e-05
7.5118e-05
9.60706e-05
6.54941e-05
9.83261e-05
5.55385e-05
0.000101064
4.51918e-05
0.000104138
3.44484e-05
0.000106953
2.34993e-05
0.000107854
1.2963e-05
0.000103169
4.26159e-06
8.59595e-05
4.47083e-05
3.76968e-05
9.95133e-05
-4.28024e-05
3.24316e-05
0.000101336
2.70572e-05
0.000103701
2.15577e-05
0.000106564
1.60246e-05
0.000109671
1.06981e-05
0.000112279
5.99665e-06
0.000112555
2.45514e-06
0.000106711
4.92985e-07
8.79216e-05
4.52013e-05
3.32005e-05
0.00010418
-3.78676e-05
2.8347e-05
0.000106189
2.33595e-05
0.000108688
1.82857e-05
0.000111637
1.32358e-05
0.000114721
8.45478e-06
0.00011706
4.34669e-06
0.000116663
1.41266e-06
0.000109645
2.51603e-08
8.93091e-05
4.52265e-05
2.88354e-05
0.000108434
-3.30888e-05
2.4396e-05
0.000110629
1.98229e-05
0.000113261
1.5184e-05
0.000116276
1.06132e-05
0.000119292
6.36704e-06
0.000121306
2.84222e-06
0.000120188
5.07233e-07
0.00011198
-3.30059e-07
9.01464e-05
4.48964e-05
2.46597e-05
0.000112273
-2.84993e-05
2.06425e-05
0.000114646
1.64935e-05
0.00011741
1.22938e-05
0.000120476
8.19602e-06
0.00012339
4.4685e-06
0.000125034
1.50326e-06
0.000123153
-2.64991e-07
0.000113748
-6.08093e-07
9.04895e-05
4.42883e-05
2.07095e-05
0.000115704
-2.41399e-05
1.71126e-05
0.000118243
1.33896e-05
0.000121133
9.62923e-06
0.000124237
5.99689e-06
0.000127022
2.76928e-06
0.000128261
3.31937e-07
0.000125591
-9.15799e-07
0.000114996
-8.26117e-07
9.03998e-05
4.34622e-05
1.70069e-05
0.000118734
-2.00371e-05
1.38216e-05
0.000121428
1.0519e-05
0.000124436
7.19148e-06
0.000127564
4.0123e-06
0.000130201
1.26232e-06
0.000131011
-6.82297e-07
0.000127535
-1.45859e-06
0.000115772
-9.94538e-07
8.99358e-05
4.24677e-05
1.35566e-05
0.000121375
-1.61977e-05
1.07713e-05
0.000124214
7.87871e-06
0.000127328
4.9727e-06
0.00013047
2.23018e-06
0.000132944
-6.74281e-08
0.000133309
-1.55576e-06
0.000129023
-1.90843e-06
0.000116125
-1.12337e-06
8.91507e-05
4.13443e-05
1.03436e-05
0.000123638
-1.26066e-05
7.94687e-06
0.00012661
5.45269e-06
0.000129823
2.95448e-06
0.000132968
6.30149e-07
0.000135268
-1.24091e-06
0.00013518
-2.30798e-06
0.000130091
-2.28099e-06
0.000116098
-1.22172e-06
8.80915e-05
4.01226e-05
7.33884e-06
0.000125535
-9.23634e-06
5.31951e-06
0.00012863
3.21234e-06
0.00013193
1.10872e-06
0.000135072
-8.14064e-07
0.000137191
-2.28096e-06
0.000136647
-2.95759e-06
0.000130767
-2.59104e-06
0.000115731
-1.29862e-06
8.6799e-05
3.88239e-05
4.48379e-06
-6.01471e-06
0.000127066
2.8433e-06
0.00013027
1.12337e-06
0.00013365
-5.86862e-07
0.000136782
-2.11355e-06
0.000138717
-3.19185e-06
0.000137725
-3.5102e-06
0.000131086
-2.85248e-06
0.000115073
-1.37288e-06
8.53194e-05
3.74511e-05
7.98477e-05
-4.34885e-05
-7.91617e-05
8.06895e-05
-3.87094e-05
8.16467e-05
-3.4046e-05
8.26644e-05
-2.95171e-05
8.36947e-05
-2.51702e-05
8.46847e-05
-2.10271e-05
8.55812e-05
-1.70942e-05
8.63351e-05
-1.33604e-05
8.69026e-05
-9.80386e-06
-6.37184e-06
8.72597e-05
8.03108e-05
-4.39347e-05
-7.98646e-05
8.08958e-05
-3.92944e-05
8.15996e-05
-3.47499e-05
8.23723e-05
-3.02898e-05
8.31696e-05
-2.59674e-05
8.39452e-05
-2.18027e-05
8.4653e-05
-1.7802e-05
8.52507e-05
-1.39581e-05
8.57002e-05
-1.02534e-05
-6.65007e-06
8.59785e-05
8.07162e-05
-4.4157e-05
-8.04939e-05
8.10806e-05
-3.96588e-05
8.15588e-05
-3.52281e-05
8.21112e-05
-3.08421e-05
8.26984e-05
-2.65545e-05
8.32805e-05
-2.23848e-05
8.38182e-05
-1.83397e-05
8.42755e-05
-1.44154e-05
8.46204e-05
-1.05983e-05
-6.86146e-06
8.48317e-05
8.10564e-05
-4.42067e-05
-8.10067e-05
8.12343e-05
-3.98367e-05
8.15168e-05
-3.55106e-05
8.18745e-05
-3.11998e-05
8.22748e-05
-2.69548e-05
8.26845e-05
-2.27945e-05
8.30709e-05
-1.87261e-05
8.34036e-05
-1.47481e-05
8.36558e-05
-1.08505e-05
-7.01475e-06
8.38091e-05
8.13263e-05
-4.41146e-05
-8.14184e-05
8.13475e-05
-3.98578e-05
8.14629e-05
-3.56261e-05
8.16522e-05
-3.13891e-05
8.18897e-05
-2.71923e-05
8.21486e-05
-2.30534e-05
8.24021e-05
-1.89796e-05
8.26252e-05
-1.49712e-05
8.27957e-05
-1.10211e-05
-7.11663e-06
8.28976e-05
8.15277e-05
-4.38984e-05
-8.17439e-05
8.14144e-05
-3.97445e-05
8.13876e-05
-3.55994e-05
8.14333e-05
-3.14347e-05
8.15315e-05
-2.72905e-05
8.16608e-05
-2.31828e-05
8.17998e-05
-1.91186e-05
8.1928e-05
-1.50993e-05
8.20273e-05
-1.11205e-05
-7.1734e-06
8.20841e-05
8.16677e-05
-4.35718e-05
-8.19943e-05
8.14373e-05
-3.9514e-05
8.12889e-05
-3.5451e-05
8.12124e-05
-3.13582e-05
8.11922e-05
-2.72703e-05
8.12114e-05
-2.3202e-05
8.12527e-05
-1.91599e-05
8.12997e-05
-1.51463e-05
8.13378e-05
-1.11586e-05
-7.19113e-06
8.13555e-05
8.17549e-05
-4.31466e-05
-8.218e-05
8.14219e-05
-3.91811e-05
8.11689e-05
-3.5198e-05
8.09882e-05
-3.11775e-05
8.08675e-05
-2.71496e-05
8.07933e-05
-2.31278e-05
8.07518e-05
-1.91184e-05
8.07299e-05
-1.51244e-05
8.07157e-05
-1.11444e-05
-7.17546e-06
8.07001e-05
8.17976e-05
-4.26337e-05
-8.23106e-05
8.13747e-05
-3.87581e-05
8.10312e-05
-3.48545e-05
8.07612e-05
-3.09076e-05
8.0555e-05
-2.69434e-05
8.04017e-05
-2.29744e-05
8.02901e-05
-1.90069e-05
8.02099e-05
-1.50441e-05
8.01515e-05
-1.1086e-05
-7.13146e-06
8.01075e-05
8.18037e-05
-4.20428e-05
-8.23947e-05
8.13018e-05
-3.82561e-05
8.08798e-05
-3.44325e-05
8.05331e-05
-3.05609e-05
8.02539e-05
-2.66642e-05
8.00333e-05
-2.27538e-05
7.98624e-05
-1.8836e-05
7.97329e-05
-1.49145e-05
7.96371e-05
-1.09903e-05
-7.06356e-06
7.95692e-05
8.178e-05
-4.13828e-05
-8.244e-05
8.12086e-05
-3.76847e-05
8.07183e-05
-3.39423e-05
8.03056e-05
-3.01481e-05
7.99638e-05
-2.63225e-05
7.96859e-05
-2.2476e-05
7.94648e-05
-1.86149e-05
7.92936e-05
-1.47433e-05
7.91664e-05
-1.08631e-05
-6.97559e-06
7.90784e-05
8.17321e-05
-4.06618e-05
-8.24531e-05
8.10999e-05
-3.70525e-05
8.05503e-05
-3.33927e-05
8.00804e-05
-2.96782e-05
7.96849e-05
-2.5927e-05
7.93581e-05
-2.21492e-05
7.90942e-05
-1.8351e-05
7.88877e-05
-1.45368e-05
7.8734e-05
-1.07093e-05
-6.87078e-06
7.86292e-05
8.16652e-05
-3.98871e-05
-8.24399e-05
8.09797e-05
-3.6367e-05
8.03784e-05
-3.27914e-05
7.9859e-05
-2.91588e-05
7.94173e-05
-2.54853e-05
7.90486e-05
-2.17805e-05
7.87483e-05
-1.80506e-05
7.85119e-05
-1.43004e-05
7.83357e-05
-1.05332e-05
-6.75186e-06
7.82168e-05
8.15833e-05
-3.90652e-05
-8.24052e-05
8.08512e-05
-3.56349e-05
8.02049e-05
-3.21451e-05
7.96427e-05
-2.85966e-05
7.91611e-05
-2.50038e-05
7.87565e-05
-2.13758e-05
7.8425e-05
-1.77191e-05
7.81631e-05
-1.40386e-05
7.7968e-05
-1.0338e-05
-6.6211e-06
7.78373e-05
8.149e-05
-3.82019e-05
-8.23533e-05
8.07172e-05
-3.4862e-05
8.00317e-05
-3.14597e-05
7.94323e-05
-2.79972e-05
7.89164e-05
-2.44878e-05
7.84808e-05
-2.09403e-05
7.81226e-05
-1.73609e-05
7.78391e-05
-1.37551e-05
7.76279e-05
-1.01268e-05
-6.48039e-06
7.74872e-05
8.13883e-05
-3.73024e-05
-8.22878e-05
8.05798e-05
-3.40536e-05
7.98603e-05
-3.07401e-05
7.92287e-05
-2.73656e-05
7.8683e-05
-2.39421e-05
7.82207e-05
-2.0478e-05
7.78397e-05
-1.69799e-05
7.75377e-05
-1.34531e-05
7.73128e-05
-9.902e-06
-6.33132e-06
7.71637e-05
8.12805e-05
-3.63711e-05
-8.22118e-05
8.0441e-05
-3.32142e-05
7.96918e-05
-2.99909e-05
7.90322e-05
-2.6706e-05
7.84607e-05
-2.33706e-05
7.79755e-05
-1.99928e-05
7.75748e-05
-1.65792e-05
7.72569e-05
-1.31352e-05
7.70205e-05
-9.66554e-06
-6.17522e-06
7.68644e-05
8.11687e-05
-3.54121e-05
-8.21277e-05
8.03021e-05
-3.23476e-05
7.95271e-05
-2.92158e-05
7.88432e-05
-2.60221e-05
7.82494e-05
-2.27768e-05
7.77444e-05
-1.94878e-05
7.73267e-05
-1.61616e-05
7.69952e-05
-1.28037e-05
7.67489e-05
-9.41918e-06
-6.0132e-06
7.65869e-05
8.10545e-05
-3.44289e-05
-8.20378e-05
8.01644e-05
-3.14575e-05
7.93669e-05
-2.84183e-05
7.86618e-05
-2.53171e-05
7.80487e-05
-2.21637e-05
7.75265e-05
-1.89656e-05
7.70943e-05
-1.57293e-05
7.67511e-05
-1.24605e-05
7.64963e-05
-9.16439e-06
-5.8462e-06
7.63293e-05
8.09395e-05
-3.34245e-05
-8.19438e-05
8.00288e-05
-3.05468e-05
7.92116e-05
-2.76011e-05
7.84883e-05
-2.45937e-05
7.78583e-05
-2.15338e-05
7.73213e-05
-1.84286e-05
7.68765e-05
-1.52845e-05
7.65233e-05
-1.21074e-05
7.62613e-05
-8.90237e-06
-5.67499e-06
7.60901e-05
8.08246e-05
-3.24017e-05
-8.18473e-05
7.98959e-05
-2.96182e-05
7.90617e-05
-2.67669e-05
7.83224e-05
-2.38544e-05
7.76779e-05
-2.08893e-05
7.7128e-05
-1.78786e-05
7.66723e-05
-1.48288e-05
7.63105e-05
-1.17456e-05
7.60423e-05
-8.63419e-06
-5.50025e-06
7.58676e-05
8.07108e-05
-3.13629e-05
-8.17496e-05
7.97665e-05
-2.8674e-05
7.89175e-05
-2.59179e-05
7.81643e-05
-2.31012e-05
7.75071e-05
-2.02321e-05
7.6946e-05
-1.73175e-05
7.64809e-05
-1.43637e-05
7.61117e-05
-1.13763e-05
7.58382e-05
-8.36074e-06
-5.32254e-06
7.56605e-05
8.05988e-05
-3.03101e-05
-8.16517e-05
7.9641e-05
-2.77161e-05
7.8779e-05
-2.50559e-05
7.80137e-05
-2.23359e-05
7.73455e-05
-1.9564e-05
7.67748e-05
-1.67468e-05
7.63015e-05
-1.38905e-05
7.59259e-05
-1.10007e-05
7.56479e-05
-8.08276e-06
-5.14233e-06
7.54677e-05
8.04894e-05
-2.92451e-05
-8.15544e-05
7.95197e-05
-2.67464e-05
7.86464e-05
-2.41826e-05
7.78706e-05
-2.15601e-05
7.71928e-05
-1.88862e-05
7.66137e-05
-1.61676e-05
7.61333e-05
-1.34101e-05
7.57521e-05
-1.06195e-05
7.54703e-05
-7.80091e-06
-4.96002e-06
7.5288e-05
8.03829e-05
-2.81694e-05
-8.14585e-05
7.94029e-05
-2.57664e-05
7.85197e-05
-2.32995e-05
7.77347e-05
-2.0775e-05
7.70487e-05
-1.82002e-05
7.64622e-05
-1.55811e-05
7.59757e-05
-1.29237e-05
7.55897e-05
-1.02335e-05
7.53046e-05
-7.51574e-06
-4.77595e-06
7.51205e-05
8.02797e-05
-2.70846e-05
-8.13646e-05
7.92907e-05
-2.47774e-05
7.8399e-05
-2.24078e-05
7.7606e-05
-1.9982e-05
7.69127e-05
-1.75068e-05
7.63198e-05
-1.49882e-05
7.58281e-05
-1.2432e-05
7.54379e-05
-9.84337e-06
7.51499e-05
-7.22774e-06
-4.59042e-06
7.49644e-05
8.01802e-05
-2.59917e-05
-8.12731e-05
7.91834e-05
-2.37805e-05
7.82842e-05
-2.15086e-05
7.74842e-05
-1.9182e-05
7.67846e-05
-1.68072e-05
7.61861e-05
-1.43898e-05
7.56898e-05
-1.19356e-05
7.52961e-05
-9.44969e-06
7.50056e-05
-6.93729e-06
-4.40366e-06
7.48189e-05
8.00846e-05
-2.48918e-05
-8.11844e-05
7.90809e-05
-2.27769e-05
7.81752e-05
-2.0603e-05
7.73692e-05
-1.8376e-05
7.6664e-05
-1.6102e-05
7.60607e-05
-1.37866e-05
7.55603e-05
-1.14352e-05
7.51636e-05
-9.0529e-06
7.4871e-05
-6.64475e-06
-4.21589e-06
7.46832e-05
7.9993e-05
-2.37859e-05
-8.10989e-05
7.89834e-05
-2.17673e-05
7.8072e-05
-1.96916e-05
7.72607e-05
-1.75646e-05
7.65506e-05
-1.5392e-05
7.59432e-05
-1.31791e-05
7.54393e-05
-1.09313e-05
7.50398e-05
-8.65343e-06
7.47455e-05
-6.35041e-06
-4.02727e-06
7.45569e-05
7.99056e-05
-2.26747e-05
-8.10168e-05
7.88908e-05
-2.07525e-05
7.79745e-05
-1.87753e-05
7.71585e-05
-1.67486e-05
7.64443e-05
-1.46777e-05
7.58332e-05
-1.2568e-05
7.53262e-05
-1.04244e-05
7.49244e-05
-8.25164e-06
7.46286e-05
-6.05454e-06
-3.83795e-06
7.44392e-05
7.98225e-05
-2.15589e-05
-8.09383e-05
7.88032e-05
-1.97332e-05
7.78826e-05
-1.78547e-05
7.70625e-05
-1.59285e-05
7.63446e-05
-1.39598e-05
7.57303e-05
-1.19537e-05
7.52207e-05
-9.9148e-06
7.48169e-05
-7.84782e-06
7.45197e-05
-5.75735e-06
-3.64806e-06
7.43298e-05
7.97437e-05
-2.04392e-05
-8.08634e-05
7.87205e-05
-1.871e-05
7.77961e-05
-1.69303e-05
7.69725e-05
-1.51049e-05
7.62514e-05
-1.32387e-05
7.56342e-05
-1.13366e-05
7.51224e-05
-9.40291e-06
7.47168e-05
-7.44226e-06
7.44185e-05
-5.45902e-06
-3.4577e-06
7.42281e-05
7.96692e-05
-1.9316e-05
-8.07924e-05
7.86427e-05
-1.76834e-05
7.7715e-05
-1.60026e-05
7.68883e-05
-1.42782e-05
7.61644e-05
-1.25148e-05
7.55448e-05
-1.0717e-05
7.50309e-05
-8.889e-06
7.46238e-05
-7.03517e-06
7.43245e-05
-5.15971e-06
-3.26695e-06
7.41337e-05
7.95992e-05
-1.81898e-05
-8.07253e-05
7.85697e-05
-1.66539e-05
7.76391e-05
-1.50721e-05
7.68097e-05
-1.34488e-05
7.60834e-05
-1.17885e-05
7.54616e-05
-1.00952e-05
7.4946e-05
-8.37333e-06
7.45376e-05
-6.62676e-06
7.42374e-05
-4.85957e-06
-3.07589e-06
7.40463e-05
7.95335e-05
-1.70612e-05
-8.06622e-05
7.85014e-05
-1.56218e-05
7.75684e-05
-1.41391e-05
7.67367e-05
-1.26171e-05
7.60082e-05
-1.10599e-05
7.53846e-05
-9.47165e-06
7.48673e-05
-7.85611e-06
7.44578e-05
-6.21719e-06
7.41569e-05
-4.5587e-06
-2.88456e-06
7.39656e-05
7.94722e-05
-1.59303e-05
-8.06031e-05
7.84379e-05
-1.45875e-05
7.75027e-05
-1.32039e-05
7.66689e-05
-1.17833e-05
7.59385e-05
-1.03295e-05
7.53133e-05
-8.84641e-06
7.47947e-05
-7.33755e-06
7.43842e-05
-5.80661e-06
7.40827e-05
-4.25721e-06
-2.69303e-06
7.38911e-05
7.94152e-05
-1.47975e-05
-8.0548e-05
7.8379e-05
-1.35513e-05
7.7442e-05
-1.22669e-05
7.66064e-05
-1.09477e-05
7.58744e-05
-9.59751e-06
7.52477e-05
-8.21972e-06
7.4728e-05
-6.8178e-06
7.43165e-05
-5.39515e-06
7.40145e-05
-3.95517e-06
-2.50132e-06
7.38227e-05
7.93626e-05
-1.36632e-05
-8.04969e-05
7.83248e-05
-1.25135e-05
7.73861e-05
-1.13282e-05
7.6549e-05
-1.01106e-05
7.58155e-05
-8.86404e-06
7.51875e-05
-7.59178e-06
7.46668e-05
-6.29701e-06
7.42545e-05
-4.98291e-06
7.3952e-05
-3.65266e-06
-2.30947e-06
7.37602e-05
7.93142e-05
-1.25276e-05
-8.04499e-05
7.8275e-05
-1.14742e-05
7.73349e-05
-1.03881e-05
7.64964e-05
-9.27212e-06
7.57617e-05
-8.12932e-06
7.51327e-05
-6.96273e-06
7.4611e-05
-5.77531e-06
7.41981e-05
-4.57e-06
7.38951e-05
-3.34973e-06
-2.1175e-06
7.37032e-05
7.92701e-05
-1.13908e-05
-8.04068e-05
7.82297e-05
-1.04339e-05
7.72884e-05
-9.44685e-06
7.64488e-05
-8.43246e-06
7.57129e-05
-7.3935e-06
7.50829e-05
-6.33271e-06
7.45604e-05
-5.25281e-06
7.41469e-05
-4.15648e-06
7.38436e-05
-3.04644e-06
-1.92542e-06
7.36515e-05
7.92301e-05
-1.02532e-05
-8.03678e-05
7.81888e-05
-9.39249e-06
7.72465e-05
-8.50457e-06
7.64058e-05
-7.5918e-06
7.56691e-05
-6.65673e-06
7.50382e-05
-5.70184e-06
7.4515e-05
-4.7296e-06
7.41009e-05
-3.74244e-06
7.37973e-05
-2.74282e-06
-1.73325e-06
7.36051e-05
7.91944e-05
-9.11479e-06
-8.03327e-05
7.81522e-05
-8.35031e-06
7.7209e-05
-7.56142e-06
7.63675e-05
-6.75028e-06
7.56299e-05
-5.91914e-06
7.49983e-05
-5.07023e-06
7.44745e-05
-4.20576e-06
7.406e-05
-3.32792e-06
7.37561e-05
-2.43892e-06
-1.54099e-06
7.35638e-05
7.91627e-05
-7.97588e-06
-8.03016e-05
7.81199e-05
-7.30748e-06
7.7176e-05
-6.61756e-06
7.63338e-05
-5.90801e-06
7.55955e-05
-5.18083e-06
7.49632e-05
-4.43797e-06
7.44388e-05
-3.68137e-06
7.40239e-05
-2.91299e-06
7.37197e-05
-2.13475e-06
-1.34865e-06
7.35274e-05
7.91352e-05
-6.83659e-06
-8.02745e-05
7.80919e-05
-6.26414e-06
7.71474e-05
-5.67311e-06
7.63045e-05
-5.06513e-06
7.55656e-05
-4.4419e-06
7.49328e-05
-3.80513e-06
7.44079e-05
-3.1565e-06
7.39926e-05
-2.49767e-06
7.36882e-05
-1.83035e-06
-1.15623e-06
7.34958e-05
7.91117e-05
-5.69705e-06
-8.02513e-05
7.8068e-05
-5.22043e-06
7.71231e-05
-4.7282e-06
7.62797e-05
-4.22172e-06
7.55402e-05
-3.70245e-06
7.49069e-05
-3.1718e-06
7.43816e-05
-2.63119e-06
7.39659e-05
-2.08203e-06
7.36613e-05
-1.52573e-06
-9.63729e-07
7.34688e-05
7.90923e-05
-4.5574e-06
-8.02319e-05
7.80483e-05
-4.17645e-06
7.7103e-05
-3.78292e-06
7.62592e-05
-3.37789e-06
7.55193e-05
-2.96255e-06
7.48855e-05
-2.53804e-06
7.43599e-05
-2.10551e-06
7.39439e-05
-1.66608e-06
7.36391e-05
-1.22091e-06
-7.71145e-07
7.34465e-05
7.90768e-05
-3.41777e-06
-8.02165e-05
7.80327e-05
-3.13233e-06
7.70872e-05
-2.83737e-06
7.6243e-05
-2.53373e-06
7.55027e-05
-2.22229e-06
7.48686e-05
-1.90392e-06
7.43426e-05
-1.57949e-06
7.39264e-05
-1.24986e-06
7.36214e-05
-9.15902e-07
-5.78478e-07
7.34287e-05
7.90654e-05
-2.27826e-06
-8.02049e-05
7.80212e-05
-2.08816e-06
7.70755e-05
-1.89165e-06
7.62311e-05
-1.6893e-06
7.54905e-05
-1.48172e-06
7.48561e-05
-1.26949e-06
7.43298e-05
-1.0532e-06
7.39133e-05
-8.33419e-07
7.36082e-05
-6.10733e-07
-3.8573e-07
7.34154e-05
7.90579e-05
-1.13897e-06
-8.01972e-05
7.80137e-05
-1.04402e-06
7.70679e-05
-9.4583e-07
7.62233e-05
-8.44696e-07
7.54825e-05
-7.40929e-07
7.48479e-05
-6.34826e-07
7.43213e-05
-5.2668e-07
7.39047e-05
-4.16781e-07
7.35994e-05
-3.05423e-07
-1.929e-07
7.34066e-05
7.90543e-05
-8.01932e-05
7.80102e-05
7.70644e-05
7.62197e-05
7.54788e-05
7.4844e-05
7.43173e-05
7.39005e-05
7.35951e-05
7.34022e-05
7.72743e-05
6.0569e-07
7.72786e-05
1.73457e-06
7.7239e-05
2.66071e-06
7.71454e-05
3.62354e-06
7.70365e-05
4.63552e-06
7.69195e-05
5.6075e-06
7.67947e-05
6.49163e-06
7.6668e-05
7.27979e-06
7.65467e-05
7.98344e-06
7.64385e-05
8.62782e-06
7.63511e-05
9.24648e-06
7.62934e-05
9.8739e-06
7.62757e-05
1.05403e-05
7.63107e-05
1.12696e-05
7.64139e-05
1.20793e-05
7.66048e-05
1.2981e-05
7.69089e-05
1.39792e-05
7.7364e-05
1.50664e-05
7.8049e-05
1.61991e-05
1.72097e-05
7.73179e-05
6.7383e-07
7.73101e-05
1.74241e-06
7.72801e-05
2.69072e-06
7.72113e-05
3.69232e-06
7.71282e-05
4.71867e-06
7.70392e-05
5.69644e-06
7.69474e-05
6.58342e-06
7.68588e-05
7.36844e-06
7.67806e-05
8.06162e-06
7.67202e-05
8.68819e-06
7.66854e-05
9.28132e-06
7.66848e-05
9.87447e-06
7.67289e-05
1.04963e-05
7.68301e-05
1.11684e-05
7.70039e-05
1.19055e-05
7.72698e-05
1.27151e-05
7.76528e-05
1.35961e-05
7.81867e-05
1.45325e-05
7.89162e-05
1.54696e-05
1.62612e-05
7.73641e-05
7.06549e-07
7.73478e-05
1.7587e-06
7.73234e-05
2.71514e-06
7.72765e-05
3.73922e-06
7.72187e-05
4.77645e-06
7.71579e-05
5.75731e-06
7.70984e-05
6.64289e-06
7.70462e-05
7.42064e-06
7.70082e-05
8.09965e-06
7.69914e-05
8.70498e-06
7.70033e-05
9.26935e-06
7.70526e-05
9.82523e-06
7.71491e-05
1.03998e-05
7.73048e-05
1.10127e-05
7.75343e-05
1.1676e-05
7.78552e-05
1.23942e-05
7.82887e-05
1.31626e-05
7.88594e-05
1.39617e-05
7.95912e-05
1.47378e-05
1.53585e-05
7.73927e-05
7.2208e-07
7.73821e-05
1.76932e-06
7.73669e-05
2.73024e-06
7.73395e-05
3.76667e-06
7.73059e-05
4.80999e-06
7.72725e-05
5.79073e-06
7.7244e-05
6.67139e-06
7.72261e-05
7.43857e-06
7.72251e-05
8.10062e-06
7.72478e-05
8.6823e-06
7.73013e-05
9.21584e-06
7.73938e-05
9.73279e-06
7.75345e-05
1.0259e-05
7.77347e-05
1.08125e-05
7.80072e-05
1.14035e-05
7.83674e-05
1.2034e-05
7.88324e-05
1.26976e-05
7.94203e-05
1.33739e-05
8.01451e-05
1.4013e-05
1.44969e-05
7.74145e-05
7.27308e-07
7.74118e-05
1.77204e-06
7.74077e-05
2.73433e-06
7.73986e-05
3.77583e-06
7.73879e-05
4.82062e-06
7.73807e-05
5.798e-06
7.73814e-05
6.6707e-06
7.73952e-05
7.42468e-06
7.74281e-05
8.06772e-06
7.74863e-05
8.62419e-06
7.75763e-05
9.12578e-06
7.77059e-05
9.60326e-06
7.78835e-05
1.00814e-05
7.81192e-05
1.05769e-05
7.84243e-05
1.10984e-05
7.88117e-05
1.16467e-05
7.9295e-05
1.22143e-05
7.98873e-05
1.27815e-05
8.0597e-05
1.33033e-05
1.36755e-05
7.74326e-05
7.26062e-07
7.7438e-05
1.7667e-06
7.74452e-05
2.72707e-06
7.7453e-05
3.76807e-06
7.74636e-05
4.81002e-06
7.74808e-05
5.78086e-06
7.75085e-05
6.64292e-06
7.75516e-05
7.38162e-06
7.76151e-05
8.0042e-06
7.77047e-05
8.53458e-06
7.78266e-05
9.00394e-06
7.79875e-05
9.44231e-06
7.81954e-05
9.87354e-06
7.84589e-05
1.03134e-05
7.87878e-05
1.07694e-05
7.91927e-05
1.12417e-05
7.96844e-05
1.17226e-05
8.02724e-05
1.21935e-05
8.09613e-05
1.26144e-05
1.28929e-05
7.74486e-05
7.20448e-07
7.74614e-05
1.75386e-06
7.74795e-05
2.70901e-06
7.75026e-05
3.74493e-06
7.75325e-05
4.7801e-06
7.7572e-05
5.74135e-06
7.76245e-05
6.59042e-06
7.7694e-05
7.31217e-06
7.77849e-05
7.91331e-06
7.79022e-05
8.4173e-06
7.80514e-05
8.85475e-06
7.82386e-05
9.25506e-06
7.84708e-05
9.64137e-06
7.87555e-05
1.00287e-05
7.9101e-05
1.04239e-05
7.95159e-05
1.08268e-05
8.00087e-05
1.12298e-05
8.05861e-05
1.16161e-05
8.12506e-05
1.19499e-05
1.21492e-05
7.74633e-05
7.11624e-07
7.74827e-05
1.7344e-06
7.75106e-05
2.6811e-06
7.75475e-05
3.70804e-06
7.75947e-05
4.73287e-06
7.76544e-05
5.68171e-06
7.77291e-05
6.5157e-06
7.78221e-05
7.21914e-06
7.79372e-05
7.79826e-06
7.80785e-05
8.27596e-06
7.8251e-05
8.68232e-06
7.84599e-05
9.04615e-06
7.87112e-05
9.39e-06
7.90116e-05
9.72832e-06
7.93678e-05
1.00677e-05
7.97869e-05
1.04077e-05
8.02752e-05
1.07415e-05
8.08378e-05
1.10535e-05
8.14754e-05
1.13123e-05
1.14446e-05
7.74771e-05
7.00289e-07
7.75023e-05
1.7092e-06
7.75389e-05
2.64447e-06
7.75879e-05
3.65902e-06
7.76505e-05
4.67034e-06
7.7728e-05
5.6042e-06
7.78224e-05
6.42127e-06
7.79362e-05
7.10534e-06
7.80723e-05
7.66212e-06
7.82343e-05
8.11397e-06
7.84262e-05
8.4904e-06
7.86527e-05
8.81968e-06
7.89189e-05
9.12385e-06
7.92302e-05
9.41699e-06
7.95924e-05
9.70551e-06
8.0011e-05
9.98913e-06
8.0491e-05
1.02615e-05
8.10357e-05
1.05088e-05
8.16449e-05
1.0703e-05
1.0779e-05
7.74902e-05
6.86921e-07
7.75203e-05
1.67909e-06
7.75646e-05
2.60022e-06
7.76242e-05
3.59941e-06
7.77001e-05
4.59442e-06
7.77932e-05
5.51105e-06
7.79049e-05
6.30961e-06
7.80368e-05
6.97347e-06
7.81911e-05
7.50783e-06
7.83705e-05
7.9345e-06
7.85785e-05
8.28241e-06
7.88189e-05
8.57928e-06
7.9096e-05
8.84673e-06
7.94145e-05
9.09858e-06
7.97788e-05
9.34117e-06
8.01935e-05
9.57447e-06
8.06621e-05
9.79279e-06
8.11871e-05
9.98389e-06
8.17673e-05
1.01228e-05
1.01516e-05
7.75028e-05
6.71886e-07
7.75371e-05
1.64479e-06
7.75879e-05
2.54942e-06
7.76566e-05
3.53068e-06
7.77441e-05
4.50695e-06
7.78508e-05
5.40437e-06
7.79773e-05
6.18307e-06
7.81247e-05
6.82609e-06
7.82944e-05
7.33815e-06
7.84884e-05
7.74048e-06
7.87094e-05
8.06141e-06
7.89605e-05
8.32813e-06
7.92454e-05
8.56189e-06
7.95677e-05
8.77629e-06
7.99312e-05
8.9777e-06
8.03392e-05
9.1664e-06
8.07946e-05
9.33742e-06
8.12986e-05
9.4799e-06
8.18497e-05
9.57172e-06
9.56129e-06
7.75147e-05
6.55491e-07
7.75526e-05
1.60695e-06
7.7609e-05
2.49302e-06
7.76855e-05
3.45414e-06
7.77828e-05
4.4096e-06
7.79011e-05
5.28613e-06
7.80403e-05
6.04386e-06
7.82008e-05
6.66558e-06
7.83833e-05
7.1556e-06
7.85893e-05
7.53455e-06
7.88206e-05
7.83012e-06
7.90797e-05
8.069e-06
7.93695e-05
8.27206e-06
7.96931e-05
8.45273e-06
8.00533e-05
8.61747e-06
8.04528e-05
8.76689e-06
8.08935e-05
8.89673e-06
8.1376e-05
8.9974e-06
8.18984e-05
9.04934e-06
9.00659e-06
7.75262e-05
6.38e-07
7.7567e-05
1.56616e-06
7.7628e-05
2.43194e-06
7.77111e-05
3.37104e-06
7.78168e-05
4.30391e-06
7.79448e-05
5.15814e-06
7.80947e-05
5.894e-06
7.82661e-05
6.49416e-06
7.84592e-05
6.96251e-06
7.86747e-05
7.31909e-06
7.89138e-05
7.59098e-06
7.91785e-05
7.8043e-06
7.9471e-05
7.97955e-06
7.97937e-05
8.13005e-06
8.01488e-05
8.26232e-06
8.05384e-05
8.37734e-06
8.09636e-05
8.47153e-06
8.14245e-05
8.53645e-06
8.1919e-05
8.55484e-06
8.48576e-06
7.75371e-05
6.19609e-07
7.75803e-05
1.52297e-06
7.76453e-05
2.36696e-06
7.77339e-05
3.28248e-06
7.78465e-05
4.19128e-06
7.79826e-05
5.02205e-06
7.81412e-05
5.73535e-06
7.83216e-05
6.31381e-06
7.85231e-05
6.76096e-06
7.8746e-05
7.09624e-06
7.89909e-05
7.34609e-06
7.92591e-05
7.53607e-06
7.95523e-05
7.6863e-06
7.98724e-05
7.80995e-06
8.02211e-05
7.91366e-06
8.05997e-05
7.99874e-06
8.1009e-05
8.06223e-06
8.14487e-05
8.09679e-06
8.19163e-05
8.08717e-06
7.9969e-06
7.75476e-05
6.00503e-07
7.75927e-05
1.47784e-06
7.76608e-05
2.29884e-06
7.77539e-05
3.18946e-06
7.78722e-05
4.07299e-06
7.80149e-05
4.87936e-06
7.81806e-05
5.56958e-06
7.83681e-05
6.12632e-06
7.85763e-05
6.5528e-06
7.88046e-05
6.86788e-06
7.90534e-05
7.0973e-06
7.93234e-05
7.26605e-06
7.96159e-05
7.39388e-06
7.9932e-05
7.49379e-06
8.02732e-05
7.57252e-06
8.06402e-05
7.63169e-06
8.10335e-05
7.66894e-06
8.14524e-05
7.67789e-06
8.18945e-05
7.6451e-06
7.53806e-06
7.75576e-05