/*--------------------------------*- C++ -*----------------------------------*\
  =========                 |
  \\      /  F ield         | OpenFOAM: The Open Source CFD Toolbox
   \\    /   O peration     | Website:  https://openfoam.org
    \\  /    A nd           | Version:  6
     \\/     M anipulation  |
\*---------------------------------------------------------------------------*/
FoamFile
{
    version     2.0;
    format      ascii;
    class       volScalarField;
    location    "0.75";
    object      p;
}
// * * * * * * * * * * * * * * * * * * * * * * * * * * * * * * * * * * * * * //

dimensions      [0 2 -2 0 0 0 0];

internalField   nonuniform List<scalar> 
5600
(
997.161
997.871
998.48
998.5
998.435
998.426
998.436
998.444
998.449
998.455
998.462
998.469
998.478
998.487
998.497
998.509
998.521
998.535
998.551
998.568
997.125
997.884
998.491
998.5
998.433
998.425
998.436
998.443
998.448
998.454
998.461
998.468
998.477
998.486
998.496
998.508
998.52
998.534
998.55
998.566
997.105
997.887
998.495
998.498
998.431
998.424
998.434
998.441
998.446
998.452
998.458
998.465
998.473
998.482
998.492
998.503
998.515
998.529
998.543
998.559
997.082
997.886
998.497
998.496
998.428
998.421
998.431
998.438
998.442
998.447
998.453
998.46
998.468
998.476
998.485
998.495
998.506
998.518
998.531
998.545
997.054
997.884
998.499
998.494
998.424
998.417
998.427
998.433
998.437
998.441
998.447
998.453
998.46
998.467
998.475
998.484
998.494
998.504
998.515
998.526
997.021
997.881
998.501
998.49
998.419
998.412
998.422
998.427
998.43
998.434
998.439
998.444
998.45
998.456
998.463
998.47
998.478
998.486
998.494
998.502
996.985
997.879
998.503
998.486
998.413
998.406
998.415
998.42
998.422
998.425
998.429
998.433
998.438
998.443
998.448
998.454
998.459
998.464
998.469
998.473
996.946
997.878
998.507
998.481
998.405
998.399
998.408
998.411
998.413
998.415
998.418
998.421
998.424
998.428
998.431
998.435
998.438
998.44
998.442
998.442
996.9
997.882
998.511
998.474
998.396
998.39
998.399
998.402
998.402
998.404
998.406
998.408
998.41
998.412
998.414
998.415
998.415
998.415
998.413
998.409
996.813
997.907
998.52
998.459
998.384
998.382
998.39
998.391
998.391
998.392
998.393
998.394
998.395
998.395
998.395
998.395
998.393
998.389
998.384
998.376
998.591
998.62
998.654
998.693
998.738
998.788
998.846
998.909
998.979
999.147
998.588
998.616
998.649
998.687
998.73
998.779
998.835
998.896
998.961
999.129
998.578
998.605
998.637
998.673
998.714
998.76
998.812
998.869
998.93
999.092
998.561
998.586
998.616
998.649
998.687
998.73
998.777
998.827
998.882
999.037
998.537
998.559
998.586
998.617
998.651
998.688
998.729
998.773
998.82
998.964
998.508
998.526
998.551
998.577
998.606
998.638
998.672
998.707
998.746
998.875
998.473
998.488
998.509
998.532
998.556
998.581
998.607
998.633
998.662
998.774
998.436
998.446
998.464
998.482
998.5
998.519
998.536
998.553
998.571
998.663
998.395
998.402
998.417
998.43
998.442
998.454
998.464
998.472
998.478
998.547
998.354
998.359
998.37
998.378
998.384
998.388
998.389
998.386
998.38
998.426
998.319
998.326
998.331
998.332
998.329
998.32
998.303
998.278
998.252
998.286
998.28
998.284
998.282
998.277
998.266
998.249
998.221
998.185
998.147
998.161
998.239
998.238
998.23
998.219
998.201
998.176
998.141
998.097
998.052
998.044
998.195
998.19
998.177
998.16
998.136
998.103
998.061
998.011
997.96
997.931
998.151
998.14
998.123
998.1
998.071
998.032
997.984
997.928
997.872
997.826
998.106
998.091
998.07
998.043
998.008
997.965
997.912
997.852
997.793
997.731
998.062
998.044
998.019
997.988
997.949
997.902
997.846
997.784
997.723
997.648
998.021
997.999
997.971
997.937
997.896
997.847
997.789
997.726
997.664
997.576
997.982
997.958
997.928
997.892
997.849
997.799
997.741
997.679
997.616
997.518
997.947
997.921
997.89
997.853
997.81
997.759
997.702
997.64
997.576
997.47
998.314
998.274
998.234
998.193
998.151
998.11
998.069
998.031
997.996
997.965
998.301
998.263
998.225
998.187
998.149
998.111
998.074
998.039
998.007
997.978
998.285
998.249
998.214
998.179
998.144
998.11
998.077
998.045
998.016
997.989
998.271
998.237
998.204
998.173
998.141
998.11
998.08
998.051
998.024
997.998
998.258
998.227
998.197
998.168
998.138
998.11
998.082
998.056
998.031
998.007
998.247
998.218
998.19
998.163
998.136
998.11
998.084
998.06
998.037
998.015
998.236
998.21
998.184
998.159
998.134
998.11
998.086
998.064
998.042
998.022
998.227
998.202
998.178
998.155
998.133
998.11
998.088
998.067
998.047
998.028
998.219
998.196
998.174
998.152
998.131
998.11
998.09
998.07
998.052
998.033
998.212
998.19
998.17
998.15
998.13
998.11
998.091
998.073
998.055
998.038
998.205
998.185
998.166
998.147
998.129
998.11
998.093
998.076
998.059
998.043
998.199
998.18
998.162
998.145
998.128
998.111
998.094
998.078
998.062
998.047
998.193
998.176
998.159
998.143
998.127
998.111
998.095
998.08
998.065
998.05
998.188
998.172
998.156
998.141
998.126
998.111
998.096
998.082
998.068
998.054
998.184
998.169
998.154
998.139
998.125
998.111
998.097
998.083
998.07
998.057
998.18
998.165
998.152
998.138
998.124
998.111
998.098
998.085
998.072
998.059
998.176
998.162
998.149
998.136
998.124
998.111
998.098
998.086
998.074
998.062
998.172
998.16
998.147
998.135
998.123
998.111
998.099
998.087
998.076
998.064
998.169
998.157
998.146
998.134
998.122
998.111
998.099
998.088
998.077
998.066
998.166
998.155
998.144
998.133
998.122
998.111
998.1
998.089
998.079
998.068
998.164
998.153
998.142
998.132
998.121
998.111
998.1
998.09
998.08
998.07
998.161
998.151
998.141
998.131
998.121
998.111
998.101
998.091
998.081
998.071
998.159
998.149
998.139
998.13
998.12
998.11
998.101
998.091
998.082
998.073
998.157
998.147
998.138
998.129
998.12
998.11
998.101
998.092
998.083
998.074
998.155
998.146
998.137
998.128
998.119
998.11
998.101
998.093
998.084
998.075
998.153
998.144
998.136
998.127
998.119
998.11
998.102
998.093
998.085
998.076
998.151
998.143
998.135
998.126
998.118
998.11
998.102
998.094
998.086
998.077
998.149
998.141
998.134
998.126
998.118
998.11
998.102
998.094
998.086
998.078
998.148
998.14
998.133
998.125
998.117
998.11
998.102
998.094
998.087
998.079
998.146
998.139
998.132
998.124
998.117
998.11
998.102
998.095
998.087
998.08
998.145
998.138
998.131
998.124
998.117
998.109
998.102
998.095
998.088
998.081
998.144
998.137
998.13
998.123
998.116
998.109
998.102
998.095
998.088
998.081
998.143
998.136
998.13
998.123
998.116
998.109
998.102
998.095
998.089
998.082
998.142
998.135
998.129
998.122
998.116
998.109
998.102
998.096
998.089
998.082
998.141
998.134
998.128
998.122
998.115
998.109
998.102
998.096
998.089
998.083
998.14
998.134
998.128
998.121
998.115
998.109
998.102
998.096
998.09
998.083
998.139
998.133
998.127
998.121
998.115
998.109
998.102
998.096
998.09
998.084
998.138
998.132
998.127
998.121
998.115
998.109
998.102
998.096
998.09
998.084
998.137
998.132
998.126
998.12
998.114
998.108
998.102
998.096
998.09
998.084
998.137
998.131
998.126
998.12
998.114
998.108
998.102
998.096
998.09
998.084
998.136
998.131
998.125
998.12
998.114
998.108
998.102
998.096
998.091
998.085
998.136
998.13
998.125
998.119
998.114
998.108
998.102
998.097
998.091
998.085
998.135
998.13
998.125
998.119
998.114
998.108
998.102
998.097
998.091
998.085
998.135
998.13
998.124
998.119
998.114
998.108
998.102
998.097
998.091
998.085
998.134
998.129
998.124
998.119
998.113
998.108
998.102
998.097
998.091
998.085
998.134
998.129
998.124
998.119
998.113
998.108
998.102
998.097
998.091
998.086
998.134
998.129
998.124
998.119
998.113
998.108
998.102
998.097
998.091
998.086
998.134
998.129
998.124
998.118
998.113
998.108
998.102
998.097
998.091
998.086
998.134
998.129
998.124
998.118
998.113
998.108
998.102
998.097
998.091
998.086
998.134
998.129
998.124
998.118
998.113
998.108
998.102
998.097
998.091
998.086
996.634
997.995
998.544
998.432
998.368
998.374
998.379
998.379
998.378
998.377
998.377
998.376
998.375
998.374
998.371
998.368
998.363
998.355
998.345
998.328
996.552
998.023
998.543
998.414
998.359
998.367
998.372
998.37
998.368
998.368
998.367
998.365
998.363
998.361
998.357
998.352
998.346
998.338
998.326
998.311
996.516
998.02
998.535
998.402
998.35
998.36
998.363
998.361
998.36
998.358
998.357
998.355
998.352
998.349
998.345
998.339
998.332
998.324
998.313
998.298
996.492
998.013
998.527
998.393
998.342
998.352
998.355
998.353
998.351
998.349
998.347
998.344
998.341
998.337
998.333
998.327
998.319
998.31
998.299
998.285
996.472
998.004
998.521
998.384
998.333
998.344
998.347
998.344
998.342
998.34
998.337
998.334
998.331
998.326
998.321
998.315
998.307
998.297
998.286
998.272
996.455
997.996
998.514
998.376
998.325
998.336
998.339
998.336
998.333
998.331
998.328
998.325
998.321
998.316
998.31
998.303
998.295
998.286
998.275
998.261
996.438
997.987
998.507
998.369
998.317
998.328
998.331
998.328
998.325
998.322
998.319
998.315
998.311
998.306
998.3
998.293
998.285
998.275
998.264
998.251
996.422
997.978
998.501
998.361
998.309
998.32
998.323
998.319
998.316
998.314
998.31
998.306
998.302
998.296
998.29
998.283
998.275
998.265
998.255
998.242
996.406
997.97
998.494
998.354
998.302
998.312
998.315
998.312
998.308
998.305
998.302
998.298
998.293
998.287
998.281
998.274
998.266
998.256
998.246
998.234
996.391
997.961
998.488
998.347
998.294
998.305
998.308
998.304
998.301
998.298
998.294
998.289
998.285
998.279
998.273
998.265
998.257
998.248
998.238
998.226
996.376
997.953
998.482
998.34
998.287
998.298
998.3
998.297
998.293
998.29
998.286
998.282
998.277
998.271
998.265
998.257
998.249
998.24
998.23
998.219
996.361
997.945
998.476
998.333
998.28
998.291
998.293
998.29
998.286
998.283
998.279
998.274
998.269
998.263
998.257
998.25
998.242
998.233
998.223
998.213
996.346
997.937
998.47
998.327
998.273
998.284
998.287
998.283
998.279
998.276
998.272
998.267
998.262
998.256
998.25
998.243
998.235
998.227
998.217
998.207
996.332
997.93
998.464
998.32
998.267
998.277
998.28
998.276
998.272
998.269
998.265
998.26
998.255
998.25
998.243
998.236
998.229
998.22
998.211
998.201
996.319
997.922
998.459
998.314
998.261
998.271
998.274
998.27
998.266
998.263
998.259
998.254
998.249
998.243
998.237
998.23
998.223
998.215
998.206
998.197
996.306
997.915
998.453
998.308
998.255
998.265
998.268
998.264
998.26
998.257
998.253
998.248
998.243
998.237
998.231
998.225
998.217
998.21
998.201
998.192
996.293
997.908
998.448
998.303
998.249
998.259
998.262
998.258
998.254
998.251
998.247
998.242
998.237
998.232
998.226
998.219
998.212
998.205
998.196
998.188
996.281
997.902
998.443
998.297
998.243
998.254
998.256
998.252
998.249
998.245
998.241
998.237
998.232
998.227
998.221
998.214
998.207
998.2
998.192
998.184
996.269
997.895
998.438
998.292
998.238
998.248
998.251
998.247
998.243
998.24
998.236
998.232
998.227
998.222
998.216
998.21
998.203
998.196
998.188
998.18
996.258
997.889
998.434
998.287
998.232
998.243
998.246
998.242
998.238
998.235
998.231
998.227
998.222
998.217
998.211
998.205
998.199
998.192
998.185
998.177
996.247
997.883
998.429
998.282
998.227
998.238
998.241
998.237
998.233
998.23
998.226
998.222
998.217
998.212
998.207
998.201
998.195
998.188
998.181
998.174
996.236
997.878
998.425
998.277
998.223
998.234
998.236
998.232
998.229
998.226
998.222
998.218
998.213
998.208
998.203
998.197
998.191
998.185
998.178
998.171
996.226
997.872
998.421
998.273
998.218
998.229
998.232
998.228
998.224
998.221
998.218
998.213
998.209
998.204
998.199
998.194
998.188
998.181
998.175
998.168
996.217
997.867
998.417
998.269
998.214
998.225
998.228
998.224
998.22
998.217
998.214
998.21
998.205
998.201
998.196
998.19
998.184
998.178
998.172
998.165
996.208
997.862
998.414
998.265
998.21
998.221
998.224
998.22
998.216
998.213
998.21
998.206
998.202
998.197
998.192
998.187
998.181
998.176
998.169
998.163
996.199
997.858
998.41
998.261
998.206
998.217
998.22
998.216
998.213
998.21
998.206
998.202
998.198
998.194
998.189
998.184
998.179
998.173
998.167
998.161
996.191
997.853
998.407
998.257
998.202
998.213
998.216
998.213
998.209
998.206
998.203
998.199
998.195
998.191
998.186
998.181
998.176
998.17
998.165
998.159
996.183
997.849
998.404
998.254
998.199
998.21
998.213
998.209
998.206
998.203
998.2
998.196
998.192
998.188
998.183
998.179
998.173
998.168
998.163
998.157
996.176
997.845
998.401
998.251
998.195
998.207
998.21
998.206
998.203
998.2
998.197
998.193
998.189
998.185
998.181
998.176
998.171
998.166
998.161
998.155
996.169
997.841
998.398
998.248
998.192
998.203
998.207
998.203
998.2
998.197
998.194
998.19
998.187
998.183
998.178
998.174
998.169
998.164
998.159
998.153
996.163
997.838
998.396
998.245
998.189
998.201
998.204
998.2
998.197
998.194
998.191
998.188
998.184
998.18
998.176
998.172
998.167
998.162
998.157
998.152
996.156
997.835
998.393
998.242
998.186
998.198
998.201
998.198
998.194
998.192
998.189
998.185
998.182
998.178
998.174
998.17
998.165
998.16
998.155
998.15
996.151
997.831
998.391
998.239
998.184
998.195
998.198
998.195
998.192
998.189
998.186
998.183
998.18
998.176
998.172
998.168
998.163
998.159
998.154
998.149
996.145
997.829
998.389
998.237
998.181
998.193
998.196
998.193
998.19
998.187
998.184
998.181
998.178
998.174
998.17
998.166
998.162
998.157
998.152
998.148
996.14
997.826
998.387
998.235
998.179
998.191
998.194
998.191
998.188
998.185
998.182
998.179
998.176
998.172
998.168
998.164
998.16
998.156
998.151
998.146
996.135
997.823
998.385
998.233
998.177
998.189
998.192
998.189
998.186
998.183
998.18
998.177
998.174
998.17
998.167
998.163
998.159
998.154
998.15
998.145
996.131
997.821
998.383
998.231
998.175
998.187
998.19
998.187
998.184
998.181
998.179
998.176
998.172
998.169
998.165
998.161
998.157
998.153
998.149
998.144
996.127
997.819
998.381
998.229
998.173
998.185
998.188
998.185
998.182
998.18
998.177
998.174
998.171
998.167
998.164
998.16
998.156
998.152
998.148
998.143
996.123
997.817
998.38
998.227
998.172
998.183
998.187
998.183
998.181
998.178
998.176
998.173
998.169
998.166
998.163
998.159
998.155
998.151
998.147
998.142
996.12
997.815
998.378
998.226
998.17
998.182
998.185
998.182
998.179
998.177
998.174
998.171
998.168
998.165
998.161
998.158
998.154
998.15
998.146
998.142
996.117
997.813
998.377
998.225
998.169
998.18
998.184
998.181
998.178
998.176
998.173
998.17
998.167
998.164
998.16
998.157
998.153
998.149
998.145
998.141
996.114
997.812
998.376
998.223
998.168
998.179
998.183
998.18
998.177
998.175
998.172
998.169
998.166
998.163
998.16
998.156
998.152
998.149
998.145
998.14
996.112
997.81
998.375
998.222
998.166
998.178
998.182
998.179
998.176
998.174
998.171
998.168
998.165
998.162
998.159
998.155
998.152
998.148
998.144
998.14
996.109
997.809
998.374
998.222
998.166
998.177
998.181
998.178
998.175
998.173
998.17
998.167
998.165
998.161
998.158
998.155
998.151
998.147
998.143
998.139
996.108
997.808
998.373
998.221
998.165
998.177
998.18
998.177
998.174
998.172
998.17
998.167
998.164
998.161
998.158
998.154
998.151
998.147
998.143
998.139
996.107
997.807
998.373
998.22
998.164
998.176
998.18
998.176
998.174
998.171
998.169
998.166
998.163
998.16
998.157
998.154
998.15
998.146
998.143
998.139
996.107
997.806
998.372
998.22
998.164
998.176
998.179
998.176
998.173
998.171
998.169
998.166
998.163
998.16
998.157
998.153
998.15
998.146
998.142
998.138
996.11
997.804
998.372
998.221
998.164
998.175
998.179
998.176
998.173
998.171
998.168
998.165
998.163
998.16
998.156
998.153
998.15
998.146
998.142
998.138
996.123
997.795
998.372
998.223
998.163
998.174
998.178
998.175
998.173
998.17
998.168
998.165
998.162
998.159
998.156
998.153
998.149
998.146
998.142
998.138
996.175
997.76
998.365
998.228
998.164
998.174
998.178
998.175
998.173
998.17
998.168
998.165
998.162
998.159
998.156
998.153
998.149
998.146
998.142
998.138
997.803
997.768
997.737
997.709
997.679
997.647
997.613
997.577
997.54
997.474
997.807
997.773
997.74
997.713
997.684
997.653
997.621
997.586
997.552
997.493
997.801
997.772
997.742
997.717
997.69
997.661
997.631
997.599
997.567
997.515
997.795
997.77
997.743
997.719
997.694
997.667
997.639
997.61
997.58
997.538
997.789
997.768
997.743
997.721
997.698
997.673
997.647
997.62
997.593
997.559
997.785
997.766
997.744
997.724
997.702
997.678
997.654
997.629
997.605
997.579
997.781
997.765
997.745
997.726
997.705
997.683
997.66
997.637
997.616
997.596
997.779
997.764
997.747
997.728
997.708
997.687
997.665
997.643
997.624
997.61
997.778
997.764
997.748
997.73
997.711
997.69
997.669
997.648
997.63
997.619
997.779
997.765
997.749
997.732
997.712
997.692
997.671
997.65
997.632
997.623
997.788
997.797
997.806
997.814
997.823
997.831
997.839
997.847
997.855
997.863
997.87
997.877
997.884
997.89
997.897
997.903
997.909
997.914
997.92
997.925
997.93
997.935
997.94
997.944
997.949
997.953
997.957
997.961
997.965
997.969
997.972
997.976
997.979
997.983
997.986
997.99
997.993
997.996
997.999
998.003
998.006
998.009
998.013
998.016
998.02
998.024
998.028
998.032
998.037
998.041
997.785
997.793
997.803
997.812
997.821
997.829
997.837
997.846
997.853
997.861
997.868
997.876
997.883
997.889
997.896
997.902
997.908
997.913
997.919
997.924
997.929
997.934
997.939
997.944
997.948
997.952
997.957
997.961
997.964
997.968
997.972
997.975
997.979
997.982
997.986
997.989
997.992
997.996
997.999
998.002
998.005
998.009
998.012
998.016
998.019
998.023
998.027
998.031
998.036
998.04
997.781
997.789
997.799
997.809
997.818
997.827
997.835
997.843
997.851
997.859
997.867
997.874
997.881
997.888
997.894
997.9
997.906
997.912
997.918
997.923
997.928
997.933
997.938
997.943
997.947
997.952
997.956
997.96
997.964
997.967
997.971
997.975
997.978
997.982
997.985
997.988
997.992
997.995
997.998
998.001
998.005
998.008
998.011
998.015
998.018
998.022
998.025
998.029
998.034
998.038
997.776
997.783
997.795
997.805
997.815
997.824
997.833
997.841
997.849
997.857
997.865
997.872
997.879
997.886
997.893
997.899
997.905
997.911
997.917
997.922
997.927
997.932
997.937
997.942
997.946
997.951
997.955
997.959
997.963
997.966
997.97
997.974
997.977
997.981
997.984
997.987
997.991
997.994
997.997
998
998.003
998.007
998.01
998.013
998.016
998.02
998.023
998.027
998.031
998.035
997.77
997.777
997.79
997.802
997.811
997.821
997.83
997.839
997.847
997.855
997.863
997.871
997.878
997.885
997.891
997.898
997.904
997.91
997.915
997.921
997.926
997.931
997.936
997.941
997.945
997.949
997.954
997.958
997.962
997.965
997.969
997.973
997.976
997.979
997.983
997.986
997.989
997.992
997.996
997.999
998.002
998.005
998.008
998.011
998.014
998.018
998.021
998.024
998.028
998.031
997.765
997.771
997.786
997.798
997.808
997.818
997.828
997.837
997.845
997.854
997.862
997.869
997.876
997.883
997.89
997.896
997.903
997.908
997.914
997.92
997.925
997.93
997.935
997.939
997.944
997.948
997.952
997.956
997.96
997.964
997.968
997.971
997.975
997.978
997.981
997.985
997.988
997.991
997.994
997.997
998
998.003
998.006
998.009
998.012
998.015
998.018
998.021
998.024
998.027
997.761
997.766
997.782
997.796
997.806
997.816
997.826
997.835
997.844
997.852
997.86
997.868
997.875
997.882
997.889
997.895
997.901
997.907
997.913
997.918
997.924
997.929
997.934
997.938
997.943
997.947
997.951
997.955
997.959
997.963
997.966
997.97
997.973
997.977
997.98
997.983
997.986
997.989
997.992
997.995
997.998
998.001
998.003
998.006
998.009
998.011
998.014
998.017
998.019
998.022
997.758
997.763
997.781
997.794
997.805
997.815
997.825
997.835
997.843
997.852
997.86
997.867
997.874
997.881
997.888
997.894
997.901
997.906
997.912
997.917
997.923
997.928
997.932
997.937
997.941
997.946
997.95
997.954
997.958
997.961
997.965
997.968
997.972
997.975
997.978
997.981
997.984
997.987
997.99
997.993
997.995
997.998
998
998.003
998.005
998.008
998.01
998.012
998.014
998.016
997.756
997.762
997.781
997.795
997.806
997.816
997.826
997.835
997.844
997.852
997.86
997.867
997.874
997.881
997.887
997.894
997.9
997.906
997.911
997.916
997.922
997.926
997.931
997.936
997.94
997.944
997.948
997.952
997.956
997.96
997.963
997.967
997.97
997.973
997.976
997.979
997.982
997.985
997.987
997.99
997.992
997.995
997.997
997.999
998.001
998.003
998.005
998.007
998.009
998.01
997.757
997.769
997.788
997.8
997.811
997.821
997.83
997.838
997.846
997.854
997.861
997.868
997.875
997.882
997.888
997.894
997.9
997.905
997.911
997.916
997.921
997.926
997.93
997.935
997.939
997.943
997.947
997.951
997.955
997.958
997.962
997.965
997.968
997.971
997.974
997.977
997.98
997.982
997.985
997.987
997.989
997.992
997.994
997.996
997.997
997.999
998.001
998.002
998.003
998.004
997.809
997.804
997.804
997.81
997.818
997.826
997.834
997.842
997.849
997.857
997.864
997.87
997.877
997.883
997.889
997.895
997.901
997.906
997.912
997.917
997.921
997.926
997.931
997.935
997.939
997.943
997.947
997.951
997.954
997.958
997.961
997.964
997.967
997.97
997.973
997.976
997.978
997.981
997.983
997.985
997.987
997.989
997.991
997.993
997.994
997.996
997.997
997.998
997.998
997.999
997.823
997.82
997.818
997.822
997.828
997.835
997.841
997.848
997.855
997.861
997.868
997.874
997.88
997.886
997.892
997.897
997.903
997.908
997.913
997.918
997.922
997.927
997.931
997.935
997.939
997.943
997.947
997.95
997.954
997.957
997.96
997.963
997.966
997.969
997.972
997.974
997.977
997.979
997.981
997.983
997.985
997.987
997.989
997.99
997.991
997.992
997.993
997.994
997.994
997.995
997.83
997.831
997.83
997.833
997.838
997.843
997.849
997.855
997.861
997.867
997.873
997.878
997.884
997.89
997.895
997.9
997.905
997.91
997.915
997.919
997.924
997.928
997.932
997.936
997.94
997.943
997.947
997.95
997.954
997.957
997.96
997.963
997.965
997.968
997.971
997.973
997.975
997.977
997.98
997.981
997.983
997.985
997.986
997.987
997.988
997.989
997.99
997.99
997.99
997.99
997.839
997.84
997.84
997.843
997.847
997.852
997.857
997.862
997.867
997.872
997.878
997.883
997.888
997.893
997.898
997.903
997.908
997.912
997.917
997.921
997.925
997.929
997.933
997.937
997.94
997.944
997.947
997.95
997.953
997.956
997.959
997.962
997.965
997.967
997.97
997.972
997.974
997.976
997.978
997.979
997.981
997.982
997.984
997.985
997.986
997.986
997.987
997.987
997.987
997.986
997.848
997.85
997.85
997.853
997.856
997.86
997.864
997.869
997.873
997.878
997.883
997.887
997.892
997.897
997.901
997.906
997.91
997.914
997.919
997.923
997.926
997.93
997.934
997.937
997.941
997.944
997.947
997.95
997.953
997.956
997.959
997.961
997.964
997.966
997.968
997.971
997.973
997.974
997.976
997.978
997.979
997.98
997.981
997.982
997.983
997.983
997.983
997.983
997.983
997.982
997.858
997.859
997.86
997.862
997.865
997.868
997.872
997.876
997.88
997.884
997.888
997.892
997.896
997.901
997.905
997.909
997.913
997.917
997.921
997.924
997.928
997.932
997.935
997.938
997.942
997.945
997.948
997.95
997.953
997.956
997.958
997.961
997.963
997.965
997.967
997.969
997.971
997.973
997.974
997.976
997.977
997.978
997.979
997.979
997.98
997.98
997.98
997.98
997.979
997.978
997.867
997.869
997.869
997.871
997.874
997.876
997.879
997.882
997.886
997.889
997.893
997.897
997.901
997.905
997.908
997.912
997.916
997.919
997.923
997.926
997.93
997.933
997.936
997.939
997.942
997.945
997.948
997.951
997.953
997.956
997.958
997.96
997.962
997.965
997.966
997.968
997.97
997.971
997.973
997.974
997.975
997.976
997.976
997.977
997.977
997.977
997.977
997.976
997.975
997.974
997.877
997.878
997.879
997.88
997.882
997.884
997.887
997.889
997.892
997.895
997.899
997.902
997.905
997.909
997.912
997.915
997.919
997.922
997.925
997.928
997.931
997.935
997.937
997.94
997.943
997.946
997.948
997.951
997.953
997.956
997.958
997.96
997.962
997.964
997.965
997.967
997.969
997.97
997.971
997.972
997.973
997.974
997.974
997.974
997.974
997.974
997.974
997.973
997.972
997.971
997.887
997.887
997.888
997.889
997.89
997.892
997.894
997.896
997.899
997.901
997.904
997.907
997.91
997.913
997.916
997.919
997.922
997.925
997.928
997.93
997.933
997.936
997.939
997.941
997.944
997.947
997.949
997.951
997.953
997.956
997.958
997.959
997.961
997.963
997.965
997.966
997.967
997.968
997.97
997.97
997.971
997.972
997.972
997.972
997.972
997.972
997.971
997.97
997.969
997.967
997.897
997.896
997.897
997.897
997.898
997.9
997.901
997.903
997.905
997.907
997.909
997.912
997.914
997.917
997.919
997.922
997.925
997.927
997.93
997.933
997.935
997.938
997.94
997.943
997.945
997.947
997.949
997.952
997.954
997.956
997.957
997.959
997.961
997.962
997.964
997.965
997.966
997.967
997.968
997.969
997.969
997.97
997.97
997.97
997.97
997.969
997.968
997.967
997.966
997.964
997.906
997.905
997.905
997.906
997.906
997.907
997.908
997.909
997.911
997.913
997.915
997.917
997.919
997.921
997.923
997.926
997.928
997.93
997.933
997.935
997.937
997.94
997.942
997.944
997.946
997.948
997.95
997.952
997.954
997.956
997.957
997.959
997.96
997.962
997.963
997.964
997.965
997.966
997.967
997.967
997.968
997.968
997.968
997.968
997.967
997.967
997.966
997.965
997.963
997.961
997.915
997.914
997.914
997.913
997.914
997.914
997.915
997.916
997.917
997.918
997.92
997.921
997.923
997.925
997.927
997.929
997.931
997.933
997.935
997.937
997.939
997.941
997.943
997.945
997.947
997.949
997.951
997.953
997.954
997.956
997.957
997.959
997.96
997.961
997.962
997.963
997.964
997.965
997.965
997.966
997.966
997.966
997.966
997.966
997.965
997.965
997.964
997.962
997.961
997.959
997.924
997.922
997.922
997.921
997.921
997.921
997.921
997.922
997.923
997.924
997.925
997.926
997.928
997.929
997.931
997.932
997.934
997.936
997.938
997.94
997.941
997.943
997.945
997.947
997.948
997.95
997.952
997.953
997.955
997.956
997.957
997.959
997.96
997.961
997.962
997.962
997.963
997.964
997.964
997.965
997.965
997.965
997.964
997.964
997.963
997.963
997.962
997.96
997.959
997.957
997.932
997.93
997.929
997.928
997.928
997.928
997.928
997.928
997.928
997.929
997.93
997.931
997.932
997.933
997.934
997.936
997.937
997.939
997.94
997.942
997.943
997.945
997.946
997.948
997.949
997.951
997.952
997.954
997.955
997.956
997.957
997.958
997.959
997.96
997.961
997.962
997.962
997.963
997.963
997.963
997.963
997.963
997.963
997.963
997.962
997.961
997.96
997.958
997.957
997.955
997.94
997.937
997.936
997.935
997.934
997.934
997.934
997.933
997.934
997.934
997.935
997.935
997.936
997.937
997.938
997.939
997.94
997.942
997.943
997.944
997.945
997.947
997.948
997.949
997.951
997.952
997.953
997.954
997.955
997.957
997.958
997.958
997.959
997.96
997.961
997.961
997.962
997.962
997.962
997.962
997.962
997.962
997.962
997.961
997.96
997.959
997.958
997.957
997.955
997.953
997.947
997.944
997.943
997.942
997.941
997.94
997.939
997.939
997.939
997.939
997.939
997.94
997.94
997.941
997.942
997.942
997.943
997.944
997.945
997.946
997.948
997.949
997.95
997.951
997.952
997.953
997.954
997.955
997.956
997.957
997.958
997.958
997.959
997.96
997.96
997.961
997.961
997.961
997.961
997.961
997.961
997.961
997.96
997.96
997.959
997.958
997.957
997.955
997.954
997.952
997.954
997.951
997.95
997.948
997.947
997.946
997.945
997.944
997.944
997.944
997.944
997.944
997.944
997.944
997.945
997.946
997.946
997.947
997.948
997.949
997.95
997.95
997.951
997.952
997.953
997.954
997.955
997.956
997.957
997.957
997.958
997.959
997.959
997.96
997.96
997.96
997.961
997.961
997.961
997.961
997.96
997.96
997.959
997.959
997.958
997.957
997.956
997.954
997.952
997.95
997.96
997.957
997.956
997.954
997.952
997.951
997.95
997.949
997.948
997.948
997.948
997.948
997.948
997.948
997.948
997.949
997.949
997.95
997.95
997.951
997.952
997.952
997.953
997.954
997.954
997.955
997.956
997.957
997.957
997.958
997.958
997.959
997.959
997.96
997.96
997.96
997.96
997.96
997.96
997.96
997.96
997.959
997.959
997.958
997.957
997.956
997.955
997.953
997.951
997.949
997.966
997.963
997.961
997.959
997.958
997.956
997.955
997.954
997.953
997.952
997.952
997.952
997.951
997.951
997.951
997.952
997.952
997.952
997.953
997.953
997.954
997.954
997.955
997.955
997.956
997.956
997.957
997.957
997.958
997.958
997.959
997.959
997.959
997.96
997.96
997.96
997.96
997.96
997.96
997.959
997.959
997.958
997.958
997.957
997.956
997.955
997.954
997.952
997.951
997.949
997.972
997.969
997.967
997.964
997.963
997.961
997.959
997.958
997.957
997.956
997.956
997.955
997.955
997.955
997.954
997.954
997.955
997.955
997.955
997.955
997.955
997.956
997.956
997.957
997.957
997.957
997.958
997.958
997.958
997.959
997.959
997.959
997.96
997.96
997.96
997.96
997.96
997.959
997.959
997.959
997.958
997.958
997.957
997.956
997.955
997.954
997.953
997.952
997.95
997.948
997.977
997.974
997.972
997.969
997.967
997.965
997.964
997.962
997.961
997.96
997.959
997.959
997.958
997.958
997.957
997.957
997.957
997.957
997.957
997.957
997.957
997.958
997.958
997.958
997.958
997.958
997.959
997.959
997.959
997.959
997.96
997.96
997.96
997.96
997.96
997.96
997.959
997.959
997.959
997.958
997.958
997.957
997.957
997.956
997.955
997.954
997.952
997.951
997.95
997.948
997.982
997.978
997.976
997.974
997.972
997.97
997.968
997.966
997.965
997.964
997.963
997.962
997.961
997.961
997.96
997.96
997.96
997.959
997.959
997.959
997.959
997.959
997.959
997.959
997.959
997.96
997.96
997.96
997.96
997.96
997.96
997.96
997.96
997.96
997.96
997.96
997.959
997.959
997.959
997.958
997.958
997.957
997.956
997.955
997.954
997.953
997.952
997.951
997.949
997.948
997.986
997.983
997.98
997.978
997.976
997.974
997.972
997.97
997.969
997.967
997.966
997.965
997.964
997.964
997.963
997.962
997.962
997.962
997.961
997.961
997.961
997.961
997.961
997.961
997.961
997.961
997.961
997.961
997.961
997.961
997.961
997.96
997.96
997.96
997.96
997.96
997.959
997.959
997.959
997.958
997.957
997.957
997.956
997.955
997.954
997.953
997.952
997.951
997.949
997.947
997.991
997.987
997.984
997.982
997.98
997.977
997.975
997.974
997.972
997.971
997.969
997.968
997.967
997.966
997.965
997.965
997.964
997.964
997.963
997.963
997.963
997.962
997.962
997.962
997.962
997.962
997.962
997.961
997.961
997.961
997.961
997.961
997.961
997.96
997.96
997.96
997.959
997.959
997.958
997.958
997.957
997.957
997.956
997.955
997.954
997.953
997.952
997.95
997.949
997.947
997.994
997.991
997.988
997.986
997.983
997.981
997.979
997.977
997.975
997.974
997.972
997.971
997.97
997.969
997.968
997.967
997.966
997.966