/*--------------------------------*- C++ -*----------------------------------*\
  =========                 |
  \\      /  F ield         | OpenFOAM: The Open Source CFD Toolbox
   \\    /   O peration     | Website:  https://openfoam.org
    \\  /    A nd           | Version:  6
     \\/     M anipulation  |
\*---------------------------------------------------------------------------*/
FoamFile
{
    version     2.0;
    format      ascii;
    class       surfaceScalarField;
    location    "0.75";
    object      phi;
}
// * * * * * * * * * * * * * * * * * * * * * * * * * * * * * * * * * * * * * //

dimensions      [0 3 -1 0 0 0 0];

internalField   nonuniform List<scalar> 
11030
(
0.000116432
1.50393e-07
0.000116542
-1.09525e-07
0.000116472
6.98784e-08
0.000116211
2.60624e-07
0.000115935
2.76009e-07
0.000115645
2.89616e-07
0.000115295
3.50418e-07
0.000114865
4.29608e-07
0.000114351
5.14729e-07
0.000113741
6.09234e-07
0.000113025
7.16657e-07
0.000112186
8.38509e-07
0.00011121
9.76347e-07
0.000110078
1.13237e-06
0.000108768
1.30912e-06
0.000107259
1.50913e-06
0.000105525
1.7342e-06
0.000103541
1.98377e-06
0.000101289
2.2518e-06
2.51731e-06
9.87722e-05
0.000116867
-1.40905e-07
0.000116697
6.07034e-08
0.000116381
3.85089e-07
0.0001161
5.42185e-07
0.000115807
5.6913e-07
0.000115461
6.35782e-07
0.000115049
7.62264e-07
0.000114564
9.14642e-07
0.000113995
1.08335e-06
0.00011333
1.27383e-06
0.000112556
1.49062e-06
0.000111659
1.73644e-06
0.00011062
2.01456e-06
0.000109423
2.32934e-06
0.000108047
2.68575e-06
0.000106467
3.08867e-06
0.00010466
3.5415e-06
0.000102601
4.04299e-06
0.000100271
4.58097e-06
5.11791e-06
9.76709e-05
0.000116627
-2.26383e-07
0.00011655
1.37684e-07
0.00011629
6.44731e-07
0.000115973
8.59672e-07
0.000115633
9.09282e-07
0.000115243
1.02505e-06
0.000114786
1.21999e-06
0.000114251
1.44953e-06
0.00011363
1.70454e-06
0.00011291
1.99302e-06
0.00011208
2.32093e-06
0.000111124
2.69215e-06
0.000110027
3.11161e-06
0.000108771
3.5857e-06
0.000107335
4.12166e-06
0.000105697
4.72663e-06
0.000103833
5.4056e-06
0.000101719
6.15673e-06
9.93378e-05
6.96241e-06
7.77135e-06
9.66844e-05
0.000116515
-2.38339e-07
0.000116395
2.57232e-07
0.000116126
9.13323e-07
0.000115791
1.19489e-06
0.000115422
1.27858e-06
0.000114998
1.44913e-06
0.0001145
1.71742e-06
0.000113921
2.02887e-06
0.000113252
2.37396e-06
0.000112482
2.76315e-06
0.000111599
3.20385e-06
0.00011059
3.70108e-06
0.00010944
4.26126e-06
0.000108133
4.89269e-06
0.00010665
5.6047e-06
0.00010497
6.40648e-06
0.000103071
7.30452e-06
0.000100931
8.29649e-06
9.85342e-05
9.3597e-06
1.04316e-05
9.58739e-05
0.000116404
-1.80245e-07
0.000116228
4.32813e-07
0.000115937
1.20515e-06
0.000115583
1.54868e-06
0.000115188
1.67293e-06
0.000114733
1.90484e-06
0.000114198
2.25217e-06
0.000113576
2.65052e-06
0.000112861
3.08962e-06
0.000112042
3.58203e-06
0.000111109
4.13641e-06
0.000110051
4.75875e-06
0.000108856
5.45685e-06
0.000107508
6.24065e-06
0.000105991
7.12131e-06
0.000104288
8.10974e-06
0.000102379
9.21368e-06
0.000100245
1.04303e-05
9.78727e-05
1.17321e-05
1.30477e-05
9.52566e-05
0.000116279
-4.04628e-08
0.000116045
6.67414e-07
0.000115734
1.51542e-06
0.000115366
1.91694e-06
0.000114948
2.0911e-06
0.00011446
2.3931e-06
0.000113886
2.82631e-06
0.000113219
3.31689e-06
0.000112455
3.85361e-06
0.000111587
4.4508e-06
0.000110605
5.11821e-06
0.000109501
5.86268e-06
0.000108264
6.69315e-06
0.000106884
7.62098e-06
0.000105347
8.65873e-06
0.000103638
9.81864e-06
0.000101742
1.11093e-05
9.9645e-05
1.25274e-05
9.73359e-05
1.40412e-05
1.55733e-05
9.48104e-05
0.000116117
2.16333e-07
0.000115828
9.5655e-07
0.00011553
1.8134e-06
0.00011516
2.28687e-06
0.000114715
2.53578e-06
0.000114188
2.92059e-06
0.000113567
3.44722e-06
0.000112848
4.03542e-06
0.000112029
4.6724e-06
0.000111106
5.37414e-06
0.000110073
6.15161e-06
0.000108923
7.01252e-06
0.000107649
7.96678e-06
0.000106243
9.0268e-06
0.000104696
1.02061e-05
0.000102997
1.15177e-05
0.000101136
1.29707e-05
9.91015e-05
1.45614e-05
9.68877e-05
1.6255e-05
1.79719e-05
9.44891e-05
0.000115851
6.90514e-07
0.000115535
1.27274e-06
0.000115334
2.01494e-06
0.000114981
2.63935e-06
0.000114495
3.02164e-06
0.000113913
3.50253e-06
0.000113233
4.12792e-06
0.00011245
4.81794e-06
0.000111567
5.55572e-06
0.000110582
6.35896e-06
0.000109493
7.24058e-06
0.000108296
8.2093e-06
0.000106987
9.27578e-06
0.000105561
1.0453e-05
0.000104012
1.17548e-05
0.000102336
1.31943e-05
0.000100525
1.4781e-05
9.85759e-05
1.65109e-05
9.64822e-05
1.83487e-05
2.0221e-05
9.42331e-05
0.000115237
1.73307e-06
0.000115124
1.38553e-06
0.000115206
1.93325e-06
0.00011485
2.99581e-06
0.000114277
3.59434e-06
0.000113617
4.16249e-06
0.00011286
4.88506e-06
0.000111999
5.67885e-06
0.00011104
6.5146e-06
0.000109986
7.4129e-06
0.000108837
8.39011e-06
0.00010759
9.45593e-06
0.000106244
1.06212e-05
0.000104799
1.18988e-05
0.000103252
1.33019e-05
0.000101603
1.48428e-05
9.98536e-05
1.65305e-05
9.80024e-05
1.83621e-05
9.60478e-05
2.03033e-05
2.22831e-05
9.39857e-05
0.000114123
3.88504e-06
0.00011498
5.28694e-07
0.000115299
1.61432e-06
0.000114753
3.54161e-06
0.000114036
4.31064e-06
0.000113275
4.92376e-06
0.000112423
5.73744e-06
0.000111472
6.62932e-06
0.000110432
7.55451e-06
0.000109307
8.53876e-06
0.000108095
9.60185e-06
0.000106797
1.07538e-05
0.000105413
1.20049e-05
0.000103945
1.33667e-05
0.000102397
1.48506e-05
0.000100773
1.64663e-05
9.90841e-05
1.82194e-05
9.7339e-05
2.01072e-05
9.55275e-05
2.21148e-05
9.36382e-05
2.41724e-05
8.83745e-05
1.03977e-05
7.78338e-05
1.05408e-05
6.71361e-05
1.06977e-05
5.62772e-05
1.08589e-05
4.52726e-05
1.10046e-05
3.41969e-05
1.10758e-05
2.32651e-05
1.09317e-05
1.29934e-05
1.02718e-05
4.46438e-06
8.52898e-06
4.46438e-06
8.73625e-05
2.0706e-05
7.69051e-05
2.09982e-05
6.62935e-05
2.13093e-05
5.55261e-05
2.16263e-05
4.46225e-05
2.19082e-05
3.36621e-05
2.20362e-05
2.28624e-05
2.17314e-05
1.27368e-05
2.03973e-05
4.40339e-06
1.68624e-05
8.86777e-06
8.64631e-05
3.09273e-05
7.60881e-05
3.13732e-05
6.55599e-05
3.18374e-05
5.48792e-05
3.2307e-05
4.40678e-05
3.27196e-05
3.32087e-05
3.28953e-05
2.2524e-05
3.24161e-05
1.25306e-05
3.03908e-05
4.32026e-06
2.50727e-05
1.3188e-05
8.57235e-05
4.10777e-05
7.54173e-05
4.16794e-05
6.49599e-05
4.22948e-05
5.43526e-05
4.29143e-05
4.36177e-05
4.34544e-05
3.28407e-05
4.36724e-05
2.22474e-05
4.30094e-05
1.23575e-05
4.02807e-05
4.25162e-06
3.31786e-05
1.74397e-05
8.51589e-05
5.11754e-05
7.49036e-05
5.19348e-05
6.44997e-05
5.26987e-05
5.39472e-05
5.34668e-05
4.32681e-05
5.41336e-05
3.25495e-05
5.43909e-05
2.20221e-05
5.35369e-05
1.22108e-05
5.0092e-05
4.19096e-06
4.11984e-05
2.16306e-05
8.47489e-05
6.12369e-05
7.45268e-05
6.21569e-05
6.41583e-05
6.30671e-05
5.36408e-05
6.39843e-05
4.2995e-05
6.47794e-05
3.23109e-05
6.50749e-05
2.18258e-05
6.4022e-05
1.20734e-05
5.98445e-05
4.12942e-06
4.91423e-05
2.576e-05
8.4447e-05
7.1279e-05
7.42412e-05
7.23627e-05
6.38908e-05
7.34175e-05
5.33878e-05
7.44873e-05
4.27531e-05
7.54141e-05
3.20817e-05
7.57462e-05
2.16213e-05
7.44824e-05
1.19185e-05
6.95473e-05
4.05348e-06
5.70074e-05
2.98135e-05
8.41852e-05
8.13269e-05
7.39758e-05
8.25721e-05
6.36256e-05
8.37677e-05
5.31166e-05
8.49963e-05
4.2473e-05
8.60577e-05
3.17988e-05
8.64204e-05
2.13566e-05
8.49247e-05
1.17102e-05
7.91936e-05
3.94548e-06
6.47721e-05
3.3759e-05
8.38569e-05
9.14557e-05
7.36172e-05
9.28118e-05
6.32466e-05
9.41383e-05
5.27138e-05
9.55292e-05
4.20525e-05
9.6719e-05
3.13772e-05
9.70957e-05
2.09673e-05
9.53346e-05
1.14037e-05
8.87573e-05
3.78052e-06
7.23952e-05
3.75395e-05
8.32142e-05
0.00010188
7.29536e-05
0.000103072
6.25467e-05
0.000104545
5.19966e-05
0.000106079
4.13435e-05
0.000107372
3.07053e-05
0.000107734
2.03724e-05
0.000105667
1.09355e-05
9.81942e-05
3.50777e-06
7.9823e-05
4.10473e-05
3.17033e-05
0.000107358
-3.71819e-05
2.6257e-05
0.000108519
2.09013e-05
0.000109901
1.56866e-05
0.000111294
1.07624e-05
0.000112296
6.38787e-06
0.000112108
2.91859e-06
0.000109137
7.13832e-07
0.000100399
-9.59266e-08
8.06327e-05
4.09514e-05
2.56539e-05
0.000112282
-3.05774e-05
2.07267e-05
0.000113446
1.59004e-05
0.000114727
1.12864e-05
0.000115908
7.05173e-06
0.000116531
3.45387e-06
0.000115706
8.18799e-07
0.000111772
-5.54767e-07
0.000101773
-6.24349e-07
8.07023e-05
4.0327e-05
1.96353e-05
0.00011668
-2.40335e-05
1.52443e-05
0.000117837
1.0986e-05
0.000118986
6.99926e-06
0.000119895
3.47313e-06
0.000120057
6.65251e-07
0.000118514
-1.12765e-06
0.000113565
-1.67299e-06
0.000102318
-1.03511e-06
8.00644e-05
3.92919e-05
1.37051e-05
0.000120558
-1.75829e-05
9.86947e-06
0.000121673
6.20443e-06
0.000122651
2.8687e-06
0.00012323
6.77283e-08
0.000122858
-1.94366e-06
0.000120526
-2.90113e-06
0.000114522
-2.64522e-06
0.000102062
-1.3613e-06
7.87805e-05
3.79306e-05
7.9063e-06
0.000123913
-1.12614e-05
4.63673e-06
0.000124942
1.58455e-06
0.000125703
-1.07893e-06
0.000125894
-3.13992e-06
0.000124919
-4.3531e-06
0.000121739
-4.49317e-06
0.000114662
-3.47959e-06
0.000101048
-1.61861e-06
7.69195e-05
3.6312e-05
2.26811e-06
0.000126742
-5.09722e-06
-4.2695e-07
0.000127637
-2.85094e-06
0.000128127
-4.82534e-06
0.000127868
-6.13577e-06
0.000126229
-6.55449e-06
0.000122157
-5.90273e-06
0.00011401
-4.18314e-06
9.93288e-05
-1.81569e-06
7.45521e-05
3.44963e-05
-3.18976e-06
0.00012904
8.91604e-07
-5.3019e-06
0.000129749
-7.08467e-06
0.00012991
-8.35684e-06
0.00012914
-8.91078e-06
0.000126783
-8.54444e-06
0.000121791
-7.13285e-06
0.000112599
-4.76398e-06
9.69599e-05
-1.96073e-06
7.17488e-05
3.25356e-05
-8.45624e-06
0.000130801
6.69568e-06
-9.97553e-06
0.000131269
-1.11044e-05
0.000131038
-1.16632e-05
0.000129699
-1.14582e-05
0.000126578
-1.03211e-05
0.000120654
-8.18742e-06
0.000110465
-5.23025e-06
9.40028e-05
-2.06107e-06
6.85796e-05
3.04745e-05
-1.35255e-05
0.000132015
1.23112e-05
-1.44385e-05
0.000132182
-1.48977e-05
0.000131497
-1.47306e-05
0.000129532
-1.37653e-05
0.000125613
-1.18766e-05
0.000118765
-9.06634e-06
0.000107655
-5.58925e-06
9.05257e-05
-2.12445e-06
6.51148e-05
2.835e-05
-1.83873e-05
1.77423e-05
0.00013266
-1.86645e-05
0.000132459
-1.84254e-05
0.000131258
-1.75138e-05
0.000128621
-1.57903e-05
0.00012389
-1.31825e-05
0.000116158
-9.7619e-06
0.000104234
-5.85194e-06
8.66157e-05
-2.16795e-06
6.14308e-05
2.61821e-05
8.23111e-05
-3.77902e-05
-8.17028e-05
8.31403e-05
-3.14065e-05
8.41633e-05
-2.50565e-05
8.53239e-05
-1.87435e-05
8.65803e-05
-1.25177e-05
8.78843e-05
-6.4013e-06
8.91851e-05
-4.09193e-07
9.04322e-05
5.44861e-06
9.15781e-05
1.11653e-05
1.67525e-05
9.25678e-05
8.30415e-05
-3.82225e-05
-8.26091e-05
8.36674e-05
-3.20324e-05
8.44873e-05
-2.58764e-05
8.54579e-05
-1.97141e-05
8.65412e-05
-1.3601e-05
8.76962e-05
-7.55627e-06
8.88794e-05
-1.59239e-06
9.00476e-05
4.28039e-06
9.11594e-05
1.00536e-05
1.57428e-05
9.21691e-05
8.36635e-05
-3.84537e-05
-8.34324e-05
8.41054e-05
-3.24743e-05
8.47372e-05
-2.65082e-05
8.55276e-05
-2.05045e-05
8.64434e-05
-1.45169e-05
8.74503e-05
-8.56316e-06
8.85122e-05
-2.65424e-06
8.95929e-05
3.19962e-06
9.06574e-05
8.98912e-06
1.4731e-05
9.16693e-05
8.4203e-05
-3.85372e-05
-8.41195e-05
8.44848e-05
-3.27561e-05
8.49473e-05
-2.69707e-05
8.55691e-05
-2.11263e-05
8.63243e-05
-1.5272e-05
8.71852e-05
-9.42415e-06
8.81233e-05
-3.59227e-06
8.91092e-05
2.21366e-06
9.01141e-05
7.98426e-06
1.3736e-05
9.11091e-05
8.46525e-05
-3.85033e-05
-8.46864e-05
8.47997e-05
-3.29033e-05
8.51148e-05
-2.72857e-05
8.55851e-05
-2.15966e-05
8.6192e-05
-1.58789e-05
8.69149e-05
-1.0147e-05
8.77317e-05
-4.40914e-06
8.86199e-05
1.32546e-06
8.95563e-05
7.04786e-06
1.27738e-05
9.05184e-05
8.50118e-05
-3.83665e-05
-8.51487e-05
8.5043e-05
-3.29345e-05
8.52309e-05
-2.74736e-05
8.55688e-05
-2.19345e-05
8.60437e-05
-1.63539e-05
8.66409e-05
-1.07442e-05
8.73441e-05
-5.11239e-06
8.81366e-05
5.33035e-07
8.90003e-05
6.18409e-06
1.18559e-05
8.99183e-05
8.52885e-05
-3.81372e-05
-8.55177e-05
8.52178e-05
-3.28638e-05
8.52956e-05
-2.75514e-05
8.55186e-05
-2.21575e-05
8.58779e-05
-1.67132e-05
8.63631e-05
-1.12293e-05
8.69627e-05
-5.71199e-06
8.76645e-05
-1.68781e-07
8.84553e-05
5.39326e-06
1.09887e-05
8.93225e-05
8.54918e-05
-3.78247e-05
-8.58044e-05
8.5331e-05
-3.27029e-05
8.53129e-05
-2.75334e-05
8.54362e-05
-2.22808e-05
8.56947e-05
-1.69717e-05
8.60812e-05
-1.16158e-05
8.65877e-05
-6.21852e-06
8.72058e-05
-7.86859e-07
8.7926e-05
4.67308e-06
1.01753e-05
8.87394e-05
8.56313e-05
-3.74371e-05
-8.60189e-05
8.53903e-05
-3.24619e-05
8.52882e-05
-2.74313e-05
8.53246e-05
-2.23172e-05
8.54953e-05
-1.71423e-05
8.57951e-05
-1.19156e-05
8.62188e-05
-6.64223e-06
8.67606e-05
-1.32871e-06
8.74141e-05
4.01958e-06
9.4161e-06
8.81733e-05
8.57158e-05
-3.6982e-05
-8.6171e-05
8.54034e-05
-3.21495e-05
8.52273e-05
-2.72552e-05
8.51876e-05
-2.22775e-05
8.52813e-05
-1.72361e-05
8.55051e-05
-1.21394e-05
8.58554e-05
-6.99255e-06
8.63285e-05
-1.8018e-06
8.69201e-05
3.428e-06
8.70966e-06
8.76265e-05
8.57536e-05
-3.64661e-05
-8.62695e-05
8.53775e-05
-3.17734e-05
8.51358e-05
-2.70135e-05
8.5029e-05
-2.21707e-05
8.50553e-05
-1.72623e-05
8.52121e-05
-1.22962e-05
8.54974e-05
-7.27782e-06
8.59087e-05
-2.21314e-06
8.64435e-05
2.89327e-06
8.05346e-06
8.70997e-05
8.5752e-05
-3.58957e-05
-8.63224e-05
8.5319e-05
-3.13403e-05
8.5019e-05
-2.67136e-05
8.4853e-05
-2.20047e-05
8.48196e-05
-1.72289e-05
8.49173e-05
-1.23939e-05
8.51448e-05
-7.50532e-06
8.55007e-05
-2.56906e-06
8.59835e-05
2.41046e-06
7.44444e-06
8.65925e-05
8.57177e-05
-3.52764e-05
-8.6337e-05
8.52337e-05
-3.08563e-05
8.48818e-05
-2.63618e-05
8.46631e-05
-2.17859e-05
8.45767e-05
-1.71426e-05
8.46219e-05
-1.24391e-05
8.47979e-05
-7.68131e-06
8.5104e-05
-2.87518e-06
8.55396e-05
1.97493e-06
6.87932e-06
8.61047e-05
8.56562e-05
-3.46133e-05
-8.63194e-05
8.51267e-05
-3.03268e-05
8.47285e-05
-2.59635e-05
8.44627e-05
-2.15202e-05
8.43292e-05
-1.70091e-05
8.43275e-05
-1.24374e-05
8.44574e-05
-7.81119e-06
8.47186e-05
-3.13644e-06
8.51111e-05
1.58246e-06
6.35488e-06
8.56356e-05
8.55728e-05
-3.39108e-05
-8.62752e-05
8.50024e-05
-2.97564e-05
8.45627e-05
-2.55238e-05
8.42549e-05
-2.12123e-05
8.40791e-05
-1.68333e-05
8.40354e-05
-1.23937e-05
8.41238e-05
-7.8996e-06
8.43445e-05
-3.35714e-06
8.46977e-05
1.22927e-06
5.86803e-06
8.51845e-05
8.54717e-05
-3.31731e-05
-8.62094e-05
8.48647e-05
-2.91494e-05
8.43877e-05
-2.50468e-05
8.40421e-05
-2.08668e-05
8.38284e-05
-1.66196e-05
8.37468e-05
-1.23121e-05
8.37978e-05
-7.95055e-06
8.39817e-05
-3.54104e-06
8.4299e-05
9.11967e-07
5.41593e-06
8.47511e-05
8.53566e-05
-3.24038e-05
-8.6126e-05
8.47168e-05
-2.85095e-05
8.42063e-05
-2.45363e-05
8.38267e-05
-2.04872e-05
8.35788e-05
-1.63717e-05
8.3463e-05
-1.21964e-05
8.348e-05
-7.96755e-06
8.36304e-05
-3.69141e-06
8.39148e-05
6.27558e-07
4.99594e-06
8.43348e-05
8.52309e-05
-3.1606e-05
-8.60287e-05
8.45615e-05
-2.78401e-05
8.40208e-05
-2.39957e-05
8.36106e-05
-2.0077e-05
8.33317e-05
-1.60928e-05
8.31849e-05
-1.20496e-05
8.3171e-05
-7.95366e-06
8.32908e-05
-3.81116e-06
8.35449e-05
3.73369e-07
4.60569e-06
8.39352e-05
8.50972e-05
-3.07826e-05
-8.59206e-05
8.44012e-05
-2.71441e-05
8.38333e-05
-2.34278e-05
8.33953e-05
-1.9639e-05
8.30884e-05
-1.57858e-05
8.29134e-05
-1.18746e-05
8.28713e-05
-7.91157e-06
8.2963e-05
-3.90285e-06
8.31894e-05
1.47014e-07
4.243e-06
8.3552e-05
8.4958e-05
-2.99362e-05
-8.58044e-05
8.4238e-05
-2.6424e-05
8.36455e-05
-2.28353e-05
8.31824e-05
-1.91759e-05
8.28499e-05
-1.54534e-05
8.26492e-05
-1.16739e-05
8.25813e-05
-7.84369e-06
8.26473e-05
-3.96875e-06
8.28479e-05
-5.36487e-08
3.9059e-06
8.3185e-05
8.48152e-05
-2.90691e-05
-8.56824e-05
8.40735e-05
-2.56823e-05
8.34588e-05
-2.22206e-05
8.29728e-05
-1.86899e-05
8.26172e-05
-1.50977e-05
8.2393e-05
-1.14497e-05
8.23014e-05
-7.75216e-06
8.23436e-05
-4.01092e-06
8.25205e-05
-2.30549e-07
3.59259e-06
8.28338e-05
8.46706e-05
-2.81832e-05
-8.55565e-05
8.39093e-05
-2.49211e-05
8.32743e-05
-2.15856e-05
8.27677e-05
-1.81833e-05
8.23908e-05
-1.47208e-05
8.21451e-05
-1.1204e-05
8.20318e-05
-7.63888e-06
8.20521e-05
-4.03119e-06
8.2207e-05
-3.85439e-07
3.30142e-06
8.24982e-05
8.45256e-05
-2.72804e-05
-8.54284e-05
8.37466e-05
-2.4142e-05
8.30933e-05
-2.09323e-05
8.25677e-05
-1.76577e-05
8.21714e-05
-1.43246e-05
8.1906e-05
-1.09386e-05
8.17728e-05
-7.50561e-06
8.17728e-05
-4.03123e-06
8.19073e-05
-5.19911e-07
3.03086e-06
8.21778e-05
8.43814e-05
-2.63623e-05
-8.52995e-05
8.35863e-05
-2.33469e-05
8.29163e-05
-2.02623e-05
8.23735e-05
-1.71148e-05
8.19595e-05
-1.39106e-05
8.1676e-05
-1.06551e-05
8.15243e-05
-7.3539e-06
8.15056e-05
-4.01255e-06
8.16212e-05
-6.35429e-07
2.77953e-06
8.18725e-05
8.42391e-05
-2.54304e-05
-8.5171e-05
8.34294e-05
-2.25373e-05
8.27442e-05
-1.95771e-05
8.21856e-05
-1.65562e-05
8.17555e-05
-1.34805e-05
8.14553e-05
-1.0355e-05
8.12866e-05
-7.18518e-06
8.12506e-05
-3.97655e-06
8.13485e-05
-7.33334e-07
2.54613e-06
8.15819e-05
8.40995e-05
-2.44859e-05
-8.5044e-05
8.32766e-05
-2.17143e-05
8.25775e-05
-1.8878e-05
8.20045e-05
-1.59832e-05
8.15595e-05
-1.30354e-05
8.1244e-05
-1.00395e-05
8.10595e-05
-7.00076e-06
8.10075e-05
-3.9245e-06
8.1089e-05
-8.14863e-07
2.32945e-06
8.13057e-05
8.39634e-05
-2.35301e-05
-8.49193e-05
8.31284e-05
-2.08793e-05
8.24167e-05
-1.81663e-05
8.18305e-05
-1.53971e-05
8.13718e-05
-1.25766e-05
8.10422e-05
-9.70985e-06
8.08432e-05
-6.80182e-06
8.07763e-05
-3.85757e-06
8.08426e-05
-8.81162e-07
2.12837e-06
8.10437e-05
8.38314e-05
-2.25638e-05
-8.47976e-05
8.29854e-05
-2.00333e-05
8.22621e-05
-1.74431e-05
8.16638e-05
-1.47988e-05
8.11925e-05
-1.21053e-05
8.08499e-05
-9.36722e-06
8.06375e-05
-6.58945e-06
8.05568e-05
-3.77683e-06
8.06089e-05
-9.33295e-07
1.94185e-06
8.07954e-05
8.37039e-05
-2.15882e-05
-8.46795e-05
8.28479e-05
-1.91773e-05
8.21141e-05
-1.67092e-05
8.15047e-05
-1.41894e-05
8.10218e-05
-1.16224e-05
8.06672e-05
-9.01259e-06
8.04424e-05
-6.36467e-06
8.03488e-05
-3.68329e-06
8.03878e-05
-9.72253e-07
1.7689e-06
8.05608e-05
8.35813e-05
-2.06041e-05
-8.45655e-05
8.27162e-05
-1.83122e-05
8.19727e-05
-1.59658e-05
8.13532e-05
-1.35699e-05
8.08597e-05
-1.11289e-05
8.0494e-05
-8.64688e-06
8.02577e-05
-6.12841e-06
8.01523e-05
-3.57788e-06
8.0179e-05
-9.98957e-07
1.6086e-06
8.03393e-05
8.3464e-05
-1.96122e-05
-8.44559e-05
8.25906e-05
-1.74387e-05
8.18383e-05
-1.52135e-05
8.12094e-05
-1.2941e-05
8.07061e-05
-1.06255e-05
8.03302e-05
-8.27096e-06
8.00833e-05
-5.88152e-06
7.99669e-05
-3.46145e-06
7.99822e-05
-1.01427e-06
1.46008e-06
8.01307e-05
8.33522e-05
-1.86132e-05
-8.43512e-05
8.24712e-05
-1.65577e-05
8.17108e-05
-1.44531e-05
8.10735e-05
-1.23037e-05
8.05612e-05
-1.01132e-05
8.01758e-05
-7.88563e-06
7.99191e-05
-5.62481e-06
7.97925e-05
-3.33482e-06
7.97972e-05
-1.01901e-06
1.32254e-06
7.99347e-05
8.32461e-05
-1.76079e-05
-8.42515e-05
8.23583e-05
-1.56698e-05
8.15905e-05
-1.36854e-05
8.09453e-05
-1.16584e-05
8.04247e-05
-9.59267e-06
8.00307e-05
-7.49161e-06
7.97649e-05
-5.35903e-06
7.96288e-05
-3.19874e-06
7.96238e-05
-1.01392e-06
1.1952e-06
7.97511e-05
8.31459e-05
-1.65967e-05
-8.41571e-05
8.22518e-05
-1.47757e-05
8.14773e-05
-1.29109e-05
8.08249e-05
-1.10061e-05
8.02968e-05
-9.06451e-06
7.98948e-05
-7.08959e-06
7.96206e-05
-5.08487e-06
7.94758e-05
-3.0539e-06
7.94616e-05
-9.99728e-07
1.07734e-06
7.95794e-05
8.30517e-05
-1.55804e-05
-8.40681e-05
8.21519e-05
-1.38758e-05
8.13713e-05
-1.21303e-05
8.07124e-05
-1.03471e-05
8.01772e-05
-8.52938e-06
7.97679e-05
-6.68023e-06
7.9486e-05
-4.80298e-06
7.93331e-05
-2.90099e-06
7.93104e-05
-9.77107e-07
9.6827e-07
7.94195e-05
8.29636e-05
-1.45593e-05
-8.39847e-05
8.20586e-05
-1.29708e-05
8.12724e-05
-1.13441e-05
8.06075e-05
-9.68218e-06
8.0066e-05
-7.98787e-06
7.96499e-05
-6.26411e-06
7.93609e-05
-4.51397e-06
7.92005e-05
-2.74061e-06
7.91701e-05
-9.46692e-07
8.67331e-07
7.9271e-05
8.28816e-05
-1.3534e-05
-8.39069e-05
8.19719e-05
-1.20612e-05
8.11807e-05
-1.05529e-05
8.05104e-05
-9.01181e-06
7.9963e-05
-7.44053e-06
7.95407e-05
-5.84179e-06
7.92452e-05
-4.21843e-06
7.90779e-05
-2.57336e-06
7.90403e-05
-9.0909e-07
7.73906e-07
7.91337e-05
8.28057e-05
-1.25049e-05
-8.38348e-05
8.18919e-05
-1.11474e-05
8.10961e-05
-9.75713e-06
8.04208e-05
-8.33648e-06
7.98681e-05
-6.88789e-06
7.94402e-05
-5.41382e-06
7.91386e-05
-3.9169e-06
7.89651e-05
-2.39981e-06
7.89209e-05
-8.64874e-07
6.87402e-07
7.90074e-05
8.2736e-05
-1.14724e-05
-8.37685e-05
8.18185e-05
-1.02299e-05
8.10186e-05
-8.95723e-06
8.03388e-05
-7.65668e-06
7.97813e-05
-6.33041e-06
7.93482e-05
-4.98068e-06
7.90412e-05
-3.60988e-06
7.88618e-05
-2.22048e-06
7.88115e-05
-8.14592e-07
6.07254e-07
7.88917e-05
8.26725e-05
-1.0437e-05
-8.37079e-05
8.17516e-05
-9.30903e-06
8.0948e-05
-8.15366e-06
8.02642e-05
-6.97285e-06
7.97024e-05
-5.76858e-06
7.92646e-05
-4.54286e-06
7.89526e-05
-3.29788e-06
7.8768e-05
-2.03587e-06
7.87121e-05
-7.58765e-07
5.32916e-07
7.87865e-05
8.2615e-05
-9.39904e-06
-8.3653e-05
8.16913e-05
-8.38526e-06
8.08844e-05
-7.34682e-06
8.0197e-05
-6.28543e-06
7.96313e-05
-5.20282e-06
7.91892e-05
-4.10082e-06
7.88727e-05
-2.98137e-06
7.86833e-05
-1.84648e-06
7.86224e-05
-6.97898e-07
4.63868e-07
7.86915e-05
8.25637e-05
-8.35885e-06
-8.36039e-05
8.16374e-05
-7.45895e-06
8.08277e-05
-6.53712e-06
8.01371e-05
-5.59481e-06
7.95678e-05
-4.63356e-06
7.9122e-05
-3.65498e-06
7.88014e-05
-2.66078e-06
7.86077e-05
-1.65276e-06
7.85423e-05
-6.32474e-07
3.99605e-07
7.86065e-05
8.25184e-05
-7.31682e-06
-8.35605e-05
8.159e-05
-6.53048e-06
8.07778e-05
-5.72493e-06
8.00844e-05
-4.90139e-06
7.9512e-05
-4.06121e-06
7.90628e-05
-3.20576e-06
7.87386e-05
-2.33657e-06
7.8541e-05
-1.45517e-06
7.84715e-05
-5.62961e-07
3.39635e-07
7.85314e-05
8.24791e-05
-6.27329e-06
-8.35227e-05
8.15489e-05
-5.60021e-06
8.07346e-05
-4.91062e-06
8.00387e-05
-4.20556e-06
7.94637e-05
-3.48615e-06
7.90115e-05
-2.75358e-06
7.86841e-05
-2.00913e-06
7.8483e-05
-1.25415e-06
7.84099e-05
-4.89815e-07
2.83478e-07
7.8466e-05
8.24458e-05
-5.22861e-06
-8.34904e-05
8.1514e-05
-4.66848e-06
8.0698e-05
-4.09456e-06
8.00001e-05
-3.50768e-06
7.94227e-05
-2.90877e-06
7.8968e-05
-2.29882e-06
7.86377e-05
-1.67889e-06
7.84337e-05
-1.05012e-06
7.83574e-05
-4.13489e-07
2.30662e-07
7.84102e-05
8.24182e-05
-4.18314e-06
-8.34637e-05
8.14854e-05
-3.73566e-06
8.06679e-05
-3.2771e-06
7.99684e-05
-2.80811e-06
7.9389e-05
-2.32944e-06
7.89321e-05
-1.84187e-06
7.85995e-05
-1.34626e-06
7.83929e-05
-8.43514e-07
7.83138e-05
-3.34428e-07
1.80715e-07
7.83637e-05
8.23965e-05
-3.13721e-06
-8.34424e-05
8.14629e-05
-2.80208e-06
8.06444e-05
-2.45859e-06
7.99435e-05
-2.10721e-06
7.93626e-05
-1.74852e-06
7.89038e-05
-1.38311e-06
7.85692e-05
-1.01163e-06
7.83604e-05
-6.34754e-07
7.82791e-05
-2.53082e-07
1.33164e-07
7.83266e-05
8.23804e-05
-2.09118e-06
-8.34264e-05
8.14464e-05
-1.86807e-06
8.06272e-05
-1.63935e-06
7.99253e-05
-1.40532e-06
7.93431e-05
-1.16639e-06
7.8883e-05
-9.22941e-07
7.85468e-05
-6.75419e-07
7.83363e-05
-4.24275e-07
7.82531e-05
-1.69906e-07
8.7527e-08
7.82987e-05
8.237e-05
-1.04534e-06
-8.34158e-05
8.14359e-05
-9.33951e-07
8.06162e-05
-8.19708e-07
7.99137e-05
-7.02795e-07
7.93307e-05
-5.83411e-07
7.88695e-05
-4.61759e-07
7.85322e-05
-3.38056e-07
7.83204e-05
-2.12529e-07
7.82359e-05
-8.53782e-08
4.33103e-08
7.82801e-05
8.23651e-05
-8.34104e-05
8.14311e-05
8.06114e-05
7.99086e-05
7.93252e-05
7.88635e-05
7.85254e-05
7.83129e-05
7.82275e-05
7.82708e-05
8.14807e-05
2.59311e-06
8.07345e-05
1.27492e-06
8.0365e-05
1.9838e-06
8.04626e-05
3.44401e-06
8.04717e-05
4.30154e-06
8.038e-05
5.01546e-06
8.02748e-05
5.84267e-06
8.01698e-05
6.73431e-06
8.00602e-05
7.66416e-06
7.99497e-05
8.64921e-06
7.98466e-05
9.70496e-06
7.97596e-05
1.08408e-05
7.96988e-05
1.20657e-05
7.96764e-05
1.33891e-05
7.97073e-05
1.48196e-05
7.981e-05
1.63637e-05
8.00069e-05
1.80225e-05
8.03297e-05
1.97844e-05
8.08439e-05
2.16006e-05
2.33135e-05
8.12386e-05
1.60431e-06
8.08254e-05
1.68812e-06
8.05186e-05
2.29058e-06
8.05494e-05
3.41316e-06
8.05558e-05
4.29516e-06
8.04967e-05
5.0746e-06
8.04276e-05
5.91175e-06
8.03614e-05
6.80053e-06
8.02964e-05
7.7291e-06
8.0237e-05
8.70861e-06
8.0191e-05
9.751e-06
8.01672e-05
1.08646e-05
8.01758e-05
1.2057e-05
8.02294e-05
1.33355e-05
8.03431e-05
1.4706e-05
8.05353e-05
1.61715e-05
8.08287e-05
1.77291e-05
8.1252e-05
1.93611e-05
8.18404e-05
2.10122e-05
2.25448e-05
8.07368e-05
1.14615e-06
8.06791e-05
1.74584e-06
8.05448e-05
2.42488e-06
8.0562e-05
3.39594e-06
8.05829e-05
4.27423e-06
8.05662e-05
5.09131e-06
8.05396e-05
5.93839e-06
8.05153e-05
6.82485e-06
8.04958e-05
7.74859e-06
8.04862e-05
8.71815e-06
8.04943e-05
9.74291e-06
8.05289e-05
1.083e-05
8.06002e-05
1.19857e-05
8.07204e-05
1.32153e-05
8.0904e-05
1.45224e-05
8.1168e-05
1.59075e-05
8.15323e-05
1.73648e-05
8.20185e-05
1.88749e-05
8.26468e-05
2.03839e-05
2.17592e-05
8.05229e-05
9.21025e-07
8.05416e-05
1.72722e-06
8.05066e-05
2.45989e-06
8.05427e-05
3.35976e-06
8.05848e-05
4.23215e-06
8.0606e-05
5.07011e-06
8.06204e-05
5.92406e-06
8.06376e-05
6.80763e-06
8.06622e-05
7.72399e-06
8.07e-05
8.68037e-06
8.07585e-05
9.6844e-06
8.08464e-05
1.07421e-05
8.09737e-05
1.18584e-05
8.11519e-05
1.30371e-05
8.13944e-05
1.42799e-05
8.17163e-05
1.55856e-05
8.21345e-05
1.69466e-05
8.26661e-05
1.83433e-05
8.33253e-05
1.97247e-05
2.0965e-05
8.04207e-05
8.13884e-07
8.04579e-05
1.69001e-06
8.04717e-05
2.44607e-06
8.0522e-05
3.30949e-06
8.05808e-05
4.17335e-06
8.06319e-05
5.01897e-06
8.06814e-05
5.87456e-06
8.07362e-05
6.75289e-06
8.0801e-05
7.65911e-06
8.08819e-05
8.59949e-06
8.0986e-05
9.5803e-06
8.11216e-05
1.06065e-05
8.12981e-05
1.1682e-05
8.15261e-05
1.28091e-05
8.18178e-05
1.39883e-05
8.21863e-05
1.5217e-05
8.2646e-05
1.6487e-05
8.32104e-05
1.77789e-05
8.38898e-05
1.90453e-05
2.01685e-05
8.03791e-05
7.624e-07
8.04172e-05
1.6519e-06
8.0452e-05
2.41125e-06
8.05106e-05
3.25087e-06
8.05813e-05
4.10265e-06
8.06544e-05
4.9459e-06
8.07319e-05
5.79706e-06
8.08183e-05
6.66649e-06
8.0918e-05
7.55936e-06
8.10366e-05
8.48095e-06
8.11805e-05
9.43634e-06
8.13575e-05
1.04295e-05
8.15762e-05
1.14633e-05
8.18462e-05
1.25391e-05
8.21782e-05
1.36562e-05
8.25838e-05
1.48114e-05
8.30748e-05
1.5996e-05
8.36621e-05
1.71915e-05
8.43535e-05
1.8354e-05
1.93733e-05
8.03685e-05
7.34738e-07
8.04037e-05
1.61669e-06
8.04471e-05
2.3679e-06
8.05108e-05
3.18716e-06
8.05899e-05
4.02359e-06
8.06786e-05
4.85715e-06
8.07775e-05
5.69816e-06
8.08895e-05
6.55453e-06
8.10182e-05
7.43062e-06
8.11685e-05
8.33067e-06
8.13462e-05
9.25865e-06
8.15581e-05
1.02176e-05
8.18121e-05
1.12094e-05
8.21166e-05
1.22346e-05
8.2481e-05
1.32918e-05
8.29152e-05
1.43772e-05
8.34291e-05
1.54821e-05
8.40316e-05
1.65891e-05
8.47282e-05
1.76573e-05
1.85838e-05
8.03722e-05
7.16252e-07
8.04058e-05
1.58314e-06
8.04532e-05
2.32044e-06
8.05206e-05
3.11979e-06
8.06059e-05
3.9383e-06
8.0706e-05
4.75699e-06
8.08211e-05
5.58305e-06
8.09532e-05
6.42245e-06
8.11053e-05
7.27853e-06
8.12815e-05
8.15448e-06
8.14869e-05
9.05324e-06
8.17275e-05
9.97698e-06
8.20101e-05
1.09268e-05
8.23422e-05
1.19025e-05
8.27319e-05
1.29021e-05
8.31875e-05
1.39216e-05
8.37172e-05
1.49524e-05
8.43283e-05
1.5978e-05
8.50248e-05
1.69607e-05
1.78042e-05
8.0382e-05
7.00538e-07
8.04158e-05
1.54937e-06
8.04662e-05
2.27004e-06
8.05368e-05
3.04917e-06
8.06273e-05
3.84788e-06
8.07361e-05
4.64815e-06
8.08636e-05
5.45556e-06
8.10113e-05
6.27472e-06
8.11818e-05
7.10799e-06
8.13787e-05
7.95764e-06
8.16062e-05
8.82571e-06
8.18696e-05
9.71356e-06
8.21748e-05
1.06216e-05
8.25282e-05
1.1549e-05
8.29368e-05
1.24936e-05
8.34074e-05
1.34509e-05
8.39469e-05
1.44129e-05
8.45611e-05
1.53639e-05
8.52529e-05
1.62689e-05
1.70382e-05
8.03943e-05
6.84949e-07
8.04295e-05
1.51413e-06
8.04827e-05
2.21684e-06
8.05566e-05
2.97529e-06
8.06516e-05
3.75287e-06
8.07674e-05
4.53235e-06
8.09045e-05
5.31845e-06
8.10644e-05
6.11485e-06
8.12492e-05
6.92311e-06
8.14621e-05
7.74472e-06
8.17069e-05
8.58098e-06
8.19879e-05
9.43255e-06
8.23102e-05
1.02993e-05
8.26793e-05
1.11799e-05
8.31011e-05
1.20719e-05
8.35813e-05
1.29707e-05
8.41255e-05
1.38687e-05
8.47382e-05
1.47512e-05
8.54214e-05
1.55857e-05
1.62886e-05
8.04072e-05
6.68523e-07
8.04444e-05
1.47689e-06
8.05004e-05
2.16085e-06
8.05776e-05
2.89814e-06
8.06768e-05
3.65364e-06
8.07984e-05
4.41077e-06
8.09431e-05
5.17373e-06
8.11124e-05
5.94556e-06
8.13083e-05
6.72722e-06
8.15334e-05
7.51957e-06
8.17911e-05
8.32329e-06
8.20852e-05
9.1385e-06
8.24199e-05
9.96457e-06
8.27998e-05
1.07999e-05
8.323e-05
1.16418e-05
8.37151e-05
1.24856e-05
8.42596e-05
1.33242e-05
8.4867e-05
1.41437e-05
8.55385e-05
1.49142e-05
1.55577e-05
8.04201e-05
6.51034e-07
8.04594e-05
1.43757e-06
8.05181e-05
2.10218e-06
8.05984e-05
2.81785e-06
8.07014e-05
3.55058e-06
8.08279e-05
4.28432e-06
8.09786e-05
5.02295e-06
8.11552e-05
5.76901e-06
8.13594e-05
6.52302e-06
8.15936e-05
7.28535e-06
8.18607e-05
8.05621e-06
8.21639e-05
8.83527e-06
8.2507e-05
9.62155e-06
8.28937e-05
1.04132e-05
8.33281e-05
1.12074e-05
8.38141e-05
1.19996e-05
8.43554e-05
1.27829e-05
8.49545e-05
1.35446e-05
8.56118e-05
1.42568e-05
1.48471e-05
8.04326e-05
6.32552e-07
8.04738e-05
1.39634e-06
8.05349e-05
2.0411e-06
8.0618e-05
2.73468e-06
8.07245e-05
3.44413e-06
8.0855e-05
4.15384e-06
8.10105e-05
4.86738e-06
8.11926e-05
5.58695e-06
8.14029e-05
6.31271e-06
8.16436e-05
7.04468e-06
8.19171e-05
7.78268e-06
8.22263e-05
8.52607e-06
8.25743e-05
9.2736e-06
8.29642e-05
1.00233e-05
8.33995e-05
1.07721e-05
8.38833e-05
1.15158e-05
8.44183e-05
1.22478e-05
8.50066e-05
1.29564e-05
8.56479e-05
1.36155e-05
1.4158e-05
8.04446e-05
6.13244e-07
8.04874e-05
1.35349e-06
8.05506e-05
1.97794e-06
8.06362e-05
2.64907e-06
8.07455e-05
3.33485e-06
8.08792e-05
4.0201e-06
8.10385e-05
4.70813e-06
8.12246e-05
5.40084e-06
8.14392e-05
6.09812e-06
8.16841e-05
6.7997e-06
8.19617e-05
7.50515e-06
8.22741e-05
8.21358e-06
8.26242e-05
8.92353e-06
8.30146e-05
9.63291e-06
8.34479e-05
1.03388e-05
8.39267e-05
1.1037e-05
8.44532e-05
1.17213e-05
8.50287e-05
1.23809e-05
8.56526e-05
1.29917e-05
1.34912e-05
8.0456e-05
5.933e-07
8.05002e-05
1.30938e-06
8.0565e-05
1.91312e-06
8.06526e-05
2.56147e-06
8.07641e-05
3.22331e-06
8.09003e-05
3.88388e-06
8.10622e-05
4.54621e-06
8.12511e-05
5.21195e-06
8.14685e-05
5.88078e-06
8.17159e-05
6.55223e-06
8.19954e-05
7.22565e-06
8.2309e-05
7.89998e-06
8.26589e-05
8.57365e-06
8.30473e-05
9.24451e-06
8.34765e-05
9.90966e-06
8.39483e-05
1.05652e-05
8.44644e-05
1.12052e-05
8.50257e-05
1.18196e-05
8.56311e-05
1.23862e-05
1.28471e-05
8.0467e-05
5.72896e-07
8.0512e-05