/*--------------------------------*- C++ -*----------------------------------*\
  =========                 |
  \\      /  F ield         | OpenFOAM: The Open Source CFD Toolbox
   \\    /   O peration     | Website:  https://openfoam.org
    \\  /    A nd           | Version:  6
     \\/     M anipulation  |
\*---------------------------------------------------------------------------*/
FoamFile
{
    version     2.0;
    format      ascii;
    class       volVectorField;
    location    "0.75";
    object      U;
}
// * * * * * * * * * * * * * * * * * * * * * * * * * * * * * * * * * * * * * //

dimensions      [0 1 -1 0 0 0 0];

internalField   nonuniform List<vector> 
5600
(
(1.57748 0.00352932 3.74552e-19)
(1.14525 0.00418379 -6.43493e-18)
(0.983463 0.00405189 6.42042e-18)
(1.0045 0.00347239 0)
(1.02315 0.00333804 0)
(1.0193 0.00371243 0)
(1.01159 0.00421872 -1.19787e-17)
(1.0054 0.00473001 1.19515e-17)
(0.999292 0.00529243 0)
(0.992329 0.00594095 0)
(0.984433 0.00668122 0)
(0.975601 0.00751872 0)
(0.965728 0.00846621 0)
(0.95467 0.00954015 -2.35829e-17)
(0.942269 0.0107583 2.35301e-17)
(0.928351 0.0121385 -4.69561e-17)
(0.912723 0.0136937 4.68514e-17)
(0.895183 0.0154207 0)
(0.875532 0.0172773 -3.64413e-19)
(0.853617 0.0191263 0)
(1.58512 0.00645085 -3.6933e-19)
(1.14152 0.0092057 6.34589e-18)
(0.983 0.00997891 -6.33394e-18)
(1.00643 0.00980509 0)
(1.02452 0.0101067 0)
(1.02011 0.0111266 2.44552e-17)
(1.01237 0.0124414 2.12301e-22)
(1.00625 0.0138872 -7.38105e-19)
(1.00019 0.0155181 1.26803e-22)
(0.993287 0.0173861 -2.35344e-17)
(0.985476 0.0195122 0)
(0.97676 0.0219199 -4.76242e-17)
(0.967035 0.0246455 4.68027e-17)
(0.95616 0.0277336 0)
(0.943989 0.0312339 0)
(0.930356 0.0351954 0)
(0.91508 0.0396528 0)
(0.897968 0.0445936 -4.63664e-17)
(0.878824 0.0498947 4.66409e-17)
(0.857406 0.0552038 4.55019e-17)
(1.5947 0.00712359 0)
(1.14042 0.0142369 0)
(0.981834 0.0165815 0)
(1.00732 0.0162185 0)
(1.02575 0.016722 2.34348e-17)
(1.02125 0.018429 -2.41313e-17)
(1.01364 0.0205714 -1.46035e-18)
(1.00774 0.0229285 -7.29098e-19)
(1.00188 0.025604 2.3297e-17)
(0.995183 0.0286746 -2.18086e-17)
(0.987615 0.0321706 -1.45177e-18)
(0.979189 0.0361301 4.71137e-17)
(0.969811 0.0406105 -4.77681e-17)
(0.959355 0.045683 1.4454e-18)
(0.947693 0.0514259 4.61855e-17)
(0.93468 0.0579168 -9.36769e-17)
(0.920154 0.0652097 -1.43966e-18)
(0.903937 0.0732831 4.59832e-17)
(0.885834 0.081937 -1.43489e-18)
(0.865523 0.0906189 -7.16772e-19)
(1.60656 0.00873975 0)
(1.1403 0.0185434 -1.44514e-18)
(0.980327 0.0220451 0)
(1.00779 0.0218728 0)
(1.02694 0.0228002 0)
(1.02262 0.0252628 0)
(1.01531 0.0282717 1.43887e-18)
(1.00978 0.0315679 2.44369e-17)
(1.00429 0.0352991 -2.29768e-17)
(0.997977 0.0395666 -1.43465e-18)
(0.990833 0.0444114 2.8665e-18)
(0.982893 0.0498854 0)
(0.974084 0.0560664 -4.43441e-17)
(0.964305 0.063049 4.43004e-17)
(0.953454 0.0709379 4.56852e-17)
(0.941421 0.0798362 -4.56401e-17)
(0.928072 0.0898166 9.26171e-17)
(0.913255 0.100852 -9.11021e-17)
(0.896792 0.112674 1.4221e-18)
(0.87831 0.12456 1.42129e-18)
(1.62054 0.0104945 -5.60976e-18)
(1.14032 0.0222964 7.08414e-18)
(0.978583 0.0266435 -1.13407e-17)
(1.00827 0.0267405 -1.13351e-17)
(1.0283 0.0281831 2.26617e-17)
(1.02427 0.0314389 2.26515e-17)
(1.01739 0.0353395 -2.2642e-17)
(1.01237 0.039595 1.41454e-18)
(1.0074 0.0443862 1.41395e-18)
(1.00161 0.0498332 4.52277e-17)
(0.995052 0.0559853 -9.04173e-17)
(0.987783 0.0629066 1.41188e-18)
(0.979755 0.0706922 4.6582e-17)
(0.970899 0.0794572 1.41098e-18)
(0.961154 0.089328 -4.37222e-17)
(0.950447 0.100429 4.79325e-17)
(0.938688 0.112848 1.40917e-18)
(0.925759 0.126553 0)
(0.911521 0.141215 1.40797e-18)
(0.895581 0.155961 1.40776e-18)
(1.63642 0.0121694 5.48949e-18)
(1.1402 0.0255536 -5.54663e-18)
(0.976635 0.0304526 1.38841e-18)
(1.00892 0.0307573 0)
(1.02997 0.0327554 2.2222e-17)
(1.0263 0.0368452 -2.22266e-17)
(1.01992 0.0416638 1.38945e-18)
(1.01551 0.0468919 -4.72513e-17)
(1.01115 0.0527371 -2.7802e-18)
(1.006 0.0593311 8.89795e-17)
(1.00016 0.0667277 -4.72797e-17)
(0.993717 0.0750007 -1.39087e-18)
(0.986651 0.0842591 -4.72987e-17)
(0.978937 0.0946339 -4.59169e-17)
(0.970554 0.106268 8.76753e-17)
(0.961481 0.1193 8.63009e-17)
(0.951678 0.13383 -9.04933e-17)
(0.941069 0.14982 8.77262e-17)
(0.929567 0.166887 -1.79663e-16)
(0.916786 0.184024 8.77721e-17)
(1.65396 0.0138555 0)
(1.13963 0.0282188 0)
(0.974426 0.0332539 -1.35744e-18)
(1.0099 0.0337604 2.17372e-17)
(1.0321 0.0364296 -2.17564e-17)
(1.02876 0.041429 -1.36091e-18)
(1.02292 0.0472007 -1.36213e-18)
(1.01917 0.0534097 1.36334e-18)
(1.01547 0.0602874 1.36454e-18)
(1.01103 0.0679721 0)
(1.006 0.0765207 4.51091e-17)
(1.0005 0.0860149 1.96769e-22)
(0.994538 0.0965749 -4.24494e-17)
(0.988141 0.108342 -8.63442e-17)
(0.981333 0.12147 1.75582e-16)
(0.974145 0.136107 -8.64946e-17)
(0.966593 0.152354 8.79446e-17)
(0.95865 0.170173 -8.66452e-17)
(0.950286 0.189135 -8.80973e-17)
(0.941144 0.208136 8.67993e-17)
(1.67283 0.0162458 0)
(1.13781 0.0299462 1.32209e-18)
(0.971785 0.0344798 -2.12005e-17)
(1.0114 0.0355917 2.25617e-17)
(1.03478 0.0392302 -2.12668e-17)
(1.03166 0.0452246 2.39636e-17)
(1.02632 0.0519768 0)
(1.02323 0.0591615 1.33561e-18)
(1.0202 0.067022 0)
(1.01651 0.0757043 -1.33992e-18)
(1.01234 0.0852718 4.29469e-17)
(1.00786 0.0958143 -4.30161e-17)
(1.00312 0.10746 -8.61713e-17)
(0.998179 0.120355 8.49615e-17)
(0.993105 0.134657 0)
(0.987988 0.150514 0)
(0.982902 0.168029 8.6729e-17)
(0.977872 0.187164 1.78035e-22)
(0.972933 0.207472 -8.70087e-17)
(0.967767 0.227813 8.85045e-17)
(1.69275 0.0224861 -4.45462e-18)
(1.13252 0.0289278 4.50441e-18)
(0.968782 0.0322484 0)
(1.01402 0.0361185 -1.94187e-18)
(1.03806 0.0414715 -2.07609e-17)
(1.03476 0.048442 -2.2111e-17)
(1.0299 0.0561581 8.34399e-17)
(1.02746 0.0643151 -4.31266e-17)
(1.0251 0.0730975 -4.19198e-17)
(1.02216 0.0826672 4.33332e-17)
(1.0189 0.0931101 -8.4242e-17)
(1.01551 0.104525 1.68889e-16)
(1.01207 0.117042 1.75723e-22)
(1.00867 0.130805 -8.48512e-17)
(1.00542 0.145963 0)
(1.00248 0.162654 8.52612e-17)
(0.999983 0.180979 -1.70934e-16)
(0.998009 0.200909 8.56738e-17)
(0.996699 0.22201 0)
(0.995814 0.24313 0)
(1.71415 0.0361899 -5.56409e-18)
(1.11764 0.0203814 4.37809e-18)
(0.967697 0.0239091 0)
(1.02007 0.0357446 2.07947e-17)
(1.04182 0.0438997 -2.02287e-17)
(1.03757 0.0514639 -4.0585e-17)
(1.03338 0.0599807 -1.87026e-22)
(1.03165 0.0690892 8.16907e-17)
(1.02992 0.0787273 -8.19529e-17)
(1.02776 0.0890779 4.11082e-17)
(1.02547 0.100281 -8.24815e-17)
(1.02323 0.112446 8.27478e-17)
(1.02113 0.125697 -8.30156e-17)
(1.0193 0.140165 8.32848e-17)
(1.01791 0.155979 8.35553e-17)
(1.01714 0.17325 -8.38274e-17)
(1.0172 0.192055 0)
(1.01828 0.212391 -8.43751e-17)
(1.02065 0.233978 8.46516e-17)
(1.02413 0.255701 8.49052e-17)
(0.826118 0.0207362 0)
(0.788777 0.0229482 0)
(0.743935 0.0254848 4.24241e-17)
(0.689536 0.028396 -2.30276e-17)
(0.622837 0.0316856 -2.51811e-17)
(0.540352 0.0351948 4.16579e-17)
(0.438387 0.0383594 -1.54717e-17)
(0.313403 0.0398294 3.49143e-17)
(0.164208 0.0368953 0)
(0.0459191 0.0209108 0)
(0.830612 0.0601445 -1.8408e-17)
(0.794036 0.0668795 -5.93323e-17)
(0.749951 0.0746325 -2.13392e-17)
(0.696453 0.0835528 2.31651e-17)
(0.6308 0.0936567 2.53273e-17)
(0.549461 0.104456 -5.58549e-17)
(0.448611 0.114251 4.66607e-17)
(0.324463 0.118903 -8.77005e-17)
(0.174787 0.109846 -1.00434e-17)
(0.0521775 0.0624646 6.42092e-17)
(0.840181 0.098737 1.8484e-17)
(0.805023 0.109828 -1.98594e-17)
(0.762404 0.122626 4.28573e-17)
(0.710656 0.137348 4.65301e-17)
(0.647029 0.15402 -5.08824e-17)
(0.567905 0.171819 -2.80566e-17)
(0.4692 0.187932 3.12595e-17)
(0.346478 0.195471 -5.28874e-17)
(0.195817 0.179966 8.07813e-17)
(0.0647028 0.102507 -1.52664e-16)
(0.85519 0.135656 3.69945e-17)
(0.821991 0.150934 0)
(0.781426 0.168559 0)
(0.732162 0.188786 -4.65652e-17)
(0.671412 0.211647 5.09205e-17)
(0.595425 0.23598 2.03302e-21)
(0.499729 0.257876 0)
(0.378905 0.2678 7.05799e-17)
(0.226705 0.245781 -6.06375e-17)
(0.0830926 0.139825 1.88066e-16)
(0.875378 0.169648 -3.68991e-17)
(0.844597 0.188801 0)
(0.806588 0.210922 8.55382e-17)
(0.760437 0.236247 0)
(0.703294 0.264811 5.07643e-17)
(0.631221 0.295115 5.598e-17)
(0.539249 0.322172 0)
(0.420696 0.333944 1.40657e-16)
(0.266382 0.305474 -2.01374e-17)
(0.10665 0.173292 -7.02392e-17)
(0.90006 0.199799 1.9283e-21)
(0.872073 0.222412 -1.57598e-16)
(0.837037 0.248591 -2.56964e-21)
(0.794523 0.278503 0)
(0.741579 0.312181 -5.04314e-17)
(0.674042 0.34778 -5.55918e-17)
(0.586347 0.379275 0)
(0.470328 0.392277 -1.39577e-16)
(0.313354 0.357437 -1.59741e-16)
(0.134426 0.201946 2.32006e-17)
(0.928288 0.225478 7.21325e-22)
(0.903361 0.251089 1.06375e-21)
(0.871618 0.280836 1.6839e-16)
(0.833147 0.314771 -1.23395e-21)
(0.784841 0.352908 -9.98278e-17)
(0.72228 0.393043 -1.1e-16)
(0.639229 0.428135 -3.06079e-17)
(0.525867 0.441631 3.44808e-17)
(0.365752 0.400461 1.18299e-16)
(0.165237 0.22502 2.28825e-16)
(0.958986 0.246348 -1.69681e-21)
(0.937201 0.27454 7.70933e-17)
(0.908944 0.307364 -1.66238e-16)
(0.874781 0.344751 -4.50827e-17)
(0.831369 0.38667 2.46181e-16)
(0.77403 0.43053 1.08451e-16)
(0.695817 0.468292 -1.20613e-16)
(0.58515 0.481451 0)
(0.421529 0.433941 3.87748e-17)
(0.197752 0.242089 -4.04505e-16)
(0.991046 0.262502 -1.18425e-21)
(0.971949 0.29286 -7.58989e-17)
(0.947192 0.328337 3.86619e-21)
(0.917458 0.368677 -8.86933e-17)
(0.879081 0.413761 9.68126e-17)
(0.827191 0.460585 5.32795e-17)
(0.754091 0.500138 5.92162e-17)
(0.646293 0.512169 -3.32918e-17)
(0.478902 0.45827 3.79819e-17)
(0.230665 0.253251 1.75861e-16)
(1.02248 0.27553 -6.9437e-17)
(1.00496 0.307597 -7.44999e-17)
(0.983857 0.345353 8.0261e-17)
(0.958713 0.388161 8.697e-17)
(0.925655 0.435683 -1.89783e-16)
(0.879668 0.484407 0)
(0.812102 0.524386 0)
(0.707176 0.533989 -3.25428e-17)
(0.535253 0.473389 3.70776e-17)
(0.261959 0.258274 0)
(1.05131 0.295881 6.79091e-17)
(1.03453 0.328916 7.29404e-17)
(1.017 0.366977 0)
(0.995717 0.409943 -8.53138e-17)
(0.967093 0.456661 0)
(0.925713 0.502849 -1.02647e-16)
(0.861812 0.538008 -5.70934e-17)
(0.757568 0.540656 -6.42726e-17)
(0.580192 0.472519 -1.46892e-16)
(0.28601 0.253706 1.7041e-16)
(1.08243 0.314168 1.56558e-21)
(1.06917 0.347734 -1.48342e-16)
(1.05512 0.385262 2.1572e-21)
(1.03727 0.427097 8.67961e-17)
(1.01201 0.471193 0)
(0.973222 0.512443 1.04501e-16)
(0.909915 0.539939 0)
(0.802642 0.532874 1.31005e-16)
(0.617072 0.455891 1.49436e-20)
(0.303675 0.239242 -1.73903e-16)
(1.1149 0.328349 7.00307e-17)
(1.1056 0.361419 -7.52365e-17)
(1.0949 0.397719 2.43473e-16)
(1.08003 0.437417 -8.80783e-17)
(1.0572 0.47773 -9.62649e-17)
(1.01956 0.51288 -5.30521e-17)
(0.955039 0.531752 2.33259e-21)
(0.84296 0.514509 6.65696e-17)
(0.648209 0.429209 2.66582e-16)
(0.316893 0.218993 4.42437e-17)
(1.14841 0.3376 -1.41729e-16)
(1.14276 0.369449 0)
(1.13502 0.403772 -4.41468e-21)
(1.1225 0.44035 8.9164e-17)
(1.10106 0.475824 2.43702e-16)
(1.06317 0.503972 5.37324e-17)
(0.995842 0.513752 1.19692e-16)
(0.877538 0.486672 -1.01217e-16)
(0.672927 0.394646 -1.9315e-16)
(0.325555 0.194873 1.79615e-16)
(1.18223 0.341614 7.15359e-17)
(1.17969 0.371574 7.68608e-17)
(1.17429 0.403183 -1.65875e-16)
(1.16321 0.43574 -4.50237e-17)
(1.14189 0.465452 -1.96915e-16)
(1.10215 0.485863 -1.62862e-16)
(1.03029 0.486326 -2.41919e-16)
(0.904316 0.45012 1.36444e-16)
(0.689466 0.353496 0)
(0.329042 0.168089 -2.04511e-16)
(1.21536 0.340185 1.08038e-16)
(1.21522 0.367652 0)
(1.21131 0.395885 0)
(1.20057 0.423672 0)
(1.17793 0.446926 0)
(1.13463 0.459177 1.0939e-16)
(1.05651 0.450477 1.21896e-16)
(0.921665 0.406257 0)
(0.696728 0.307462 0)
(0.327155 0.139881 -9.16858e-17)
(1.24673 0.333334 -3.61662e-17)
(1.24814 0.357785 -8.53318e-22)
(1.24468 0.382084 -4.19399e-17)
(1.23298 0.404534 4.55402e-17)
(1.20748 0.420903 -4.98088e-17)
(1.15893 0.424926 1.37364e-16)
(1.07304 0.407632 -3.06188e-17)
(0.928532 0.356899 6.91033e-17)
(0.694299 0.258492 -1.98004e-17)
(0.320078 0.111472 9.21962e-17)
(1.27528 0.321318 7.24466e-17)
(1.27723 0.342334 -3.89222e-17)
(1.27301 0.362271 0)
(1.25894 0.379013 -4.56164e-17)
(1.229 0.38835 0)
(1.17366 0.384422 -5.50413e-17)
(1.07883 0.359477 -3.06712e-17)
(0.924426 0.304021 3.46138e-17)
(0.682338 0.208544 0)
(0.308279 0.0839658 -1.15476e-17)
(1.29999 0.304593 -5.42748e-17)
(1.30138 0.321884 3.88783e-17)
(1.29515 0.337172 0)
(1.27732 0.348033 0)
(1.24152 0.350441 4.98325e-17)
(1.17815 0.339137 -2.74872e-17)
(1.07369 0.307787 -3.06334e-17)
(0.909734 0.249608 -6.91459e-17)
(0.661702 0.159489 3.96259e-17)
(0.292495 0.0583314 -5.18908e-17)
(1.32018 0.283779 5.40724e-17)
(1.31999 0.297071 -5.59242e-22)
(1.31059 0.307436 -2.08981e-17)
(1.28769 0.312302 0)
(1.24471 0.308027 -2.48169e-17)
(1.17225 0.290164 -1.36861e-17)
(1.05773 0.253979 3.8131e-17)
(0.884881 0.195365 8.60521e-18)
(0.633052 0.113029 -4.43752e-17)
(0.273216 0.0354016 5.16422e-17)
(1.06463 0.271774 -4.18042e-16)
(1.09352 0.288384 1.03406e-16)
(1.12296 0.301661 0)
(1.1533 0.310738 1.02284e-16)
(1.18417 0.315356 -3.28297e-23)
(1.21465 0.315332 -1.56382e-18)
(1.24384 0.310629 7.77934e-19)
(1.27087 0.301404 -4.99665e-17)
(1.29486 0.287978 4.98089e-17)
(1.31506 0.270908 -2.46574e-17)
(1.07442 0.259149 2.08478e-16)
(1.10107 0.273092 0)
(1.12811 0.284405 0)
(1.15591 0.292274 1.00546e-16)
(1.18437 0.296401 1.57201e-18)
(1.21267 0.296617 -7.81196e-19)
(1.24002 0.292873 7.7724e-19)
(1.26565 0.285268 4.87683e-17)
(1.28886 0.274036 -4.93898e-17)
(1.30882 0.259686 2.46423e-17)
(1.08386 0.248517 0)
(1.10797 0.260215 -1.03041e-16)
(1.13256 0.269522 1.02107e-16)
(1.15787 0.276 -1.013e-16)
(1.18393 0.279373 0)
(1.21001 0.279489 -7.815e-19)
(1.23544 0.276297 -9.87723e-17)
(1.25957 0.269864 0)
(1.28183 0.260361 0)
(1.30135 0.248246 -2.46699e-17)
(1.09227 0.238282 0)
(1.11424 0.24798 1.14879e-21)
(1.13659 0.255555 -1.02024e-16)
(1.15956 0.260798 1.01261e-16)
(1.18329 0.263469 7.86008e-19)
(1.20717 0.263435 -1.00844e-16)
(1.23065 0.260649 -2.61957e-22)
(1.25318 0.255152 0)
(1.27433 0.247072 0)
(1.29321 0.236802 0)
(1.09927 0.228322 -1.03646e-16)
(1.11945 0.236385 2.05536e-16)
(1.13986 0.242539 7.9639e-19)
(1.16077 0.246727 -1.02015e-16)
(1.18239 0.248762 -7.86018e-19)
(1.20422 0.248542 -1.00097e-16)
(1.22582 0.246031 1.50288e-16)
(1.24677 0.241258 -3.88024e-19)
(1.26671 0.23432 -4.91533e-17)
(1.2848 0.225553 -2.4726e-17)
(1.10495 0.218595 2.06902e-16)
(1.12355 0.225367 -1.02632e-16)
(1.14228 0.230393 1.01855e-16)
(1.16141 0.233716 1.00395e-16)
(1.18116 0.235206 1.02185e-16)
(1.20115 0.234793 9.93487e-17)
(1.22102 0.232462 -4.98672e-17)
(1.24045 0.228237 -3.88351e-19)
(1.25917 0.2222 3.87139e-19)
(1.27639 0.214641 2.47539e-17)
(1.10943 0.209093 -1.0366e-16)
(1.12662 0.214824 -1.02095e-16)
(1.14388 0.218961 -1.01773e-16)
(1.16146 0.221597 -1.01148e-16)
(1.17959 0.222647 -9.98279e-17)
(1.19795 0.222069 9.86001e-17)
(1.21627 0.219866 -4.91184e-17)
(1.23428 0.216067 0)
(1.25181 0.210745 9.92809e-17)
(1.26812 0.204158 0)
(1.11286 0.19983 0)
(1.12878 0.204709 1.0236e-16)
(1.14474 0.20814 -1.01689e-16)
(1.16097 0.210239 7.89909e-19)
(1.17768 0.210947 -1.02187e-16)
(1.19461 0.210246 -1.00199e-16)
(1.21155 0.20815 5.07089e-17)
(1.22827 0.204695 -4.97932e-17)
(1.24468 0.199949 -9.93814e-17)
(1.26009 0.194148 0)
(1.11538 0.190825 -1.02868e-16)
(1.13014 0.195001 0)
(1.14494 0.197871 1.01606e-16)
(1.16 0.19955 1.01861e-16)
(1.17547 0.200001 1.23007e-22)
(1.19115 0.199217 9.94503e-17)
(1.20685 0.197223 0)
(1.22243 0.194056 4.98349e-17)
(1.23779 0.189785 4.99353e-17)
(1.25233 0.184628 -2.50323e-17)
(1.11709 0.182094 1.02676e-16)
(1.13082 0.185689 -1.02089e-16)
(1.14459 0.188109 1.01522e-16)
(1.15861 0.189461 -1.00244e-16)
(1.17299 0.189722 1.99662e-16)
(1.18756 0.188893 -9.87008e-17)
(1.20218 0.187001 -7.81109e-19)
(1.21672 0.184085 -3.8966e-19)
(1.23114 0.180215 -4.94026e-17)
(1.24485 0.175594 2.48664e-17)
(1.11813 0.173648 0)
(1.13092 0.176761 1.01955e-16)
(1.14377 0.178818 -1.01439e-16)
(1.15686 0.179918 -7.8902e-19)
(1.17028 0.180042 -9.90457e-17)
(1.18388 0.179196 -7.83613e-19)
(1.19754 0.177409 -7.81576e-19)
(1.21116 0.174719 7.79988e-19)
(1.2247 0.171194 4.98419e-17)
(1.23766 0.167027 2.48947e-17)
(1.11859 0.165493 1.02691e-16)
(1.13054 0.168206 -3.97741e-19)
(1.14256 0.169971 0)
(1.15482 0.170874 0)
(1.16738 0.170902 7.86077e-19)
(1.18012 0.170062 -5.17356e-17)
(1.19293 0.168383 1.28716e-23)
(1.20572 0.1659 5.03512e-17)
(1.21848 0.162679 3.89788e-19)
(1.23073 0.158902 -2.49229e-17)
(1.11856 0.157634 -1.02101e-16)
(1.12975 0.160013 -1.01686e-16)
(1.14103 0.161542 -1.01273e-16)
(1.15255 0.162293 -7.88426e-19)
(1.16435 0.162255 1.27103e-23)
(1.17631 0.161438 5.01848e-17)
(1.18836 0.159867 7.82554e-19)
(1.20041 0.157576 9.48777e-23)
(1.21246 0.154627 0)
(1.22407 0.151191 0)
(1.11814 0.150069 -1.02308e-16)
(1.12864 0.152171 2.03502e-16)
(1.13925 0.153508 1.01191e-16)
(1.1501 0.15414 0)
(1.16121 0.154061 -9.98342e-17)
(1.17248 0.153278 4.94174e-17)
(1.18385 0.151815 0)
(1.19523 0.149703 -5.04359e-17)
(1.20663 0.146999 -2.46064e-17)
(1.21765 0.143866 0)
(1.11738 0.142796 1.02118e-16)
(1.12727 0.144666 -1.01816e-16)
(1.13727 0.145847 0)
(1.14751 0.146388 1.00055e-16)
(1.158 0.146284 1.00621e-16)
(1.16866 0.145543 -1.00438e-16)
(1.17941 0.144186 -4.93613e-17)
(1.19018 0.142241 0)
(1.201 0.139761 2.50223e-17)
(1.21147 0.136898 0)
(1.11636 0.135808 1.01531e-16)
(1.12569 0.137484 0)
(1.13514 0.138538 0)
(1.14483 0.139009 -1.00017e-16)
(1.15477 0.138894 -1.06697e-23)
(1.16486 0.1382 4.86659e-17)
(1.17505 0.136946 5.09597e-17)
(1.18528 0.135156 -3.91633e-19)
(1.19556 0.13288 1.95689e-19)
(1.20553 0.130261 1.956e-19)
(1.11512 0.129099 -2.02686e-16)
(1.12394 0.130613 1.01153e-16)
(1.1329 0.131563 7.88606e-19)
(1.1421 0.131981 -7.87245e-19)
(1.15152 0.131864 -5.03112e-17)
(1.1611 0.131219 0)
(1.17078 0.130063 0)
(1.18051 0.128418 5.01716e-17)
(1.1903 0.12633 0)
(1.19982 0.123932 0)
(1.11371 0.12266 1.0155e-16)
(1.12207 0.124038 -1.01415e-16)
(1.13058 0.124902 7.87961e-19)
(1.13933 0.12528 -1.02302e-16)
(1.14829 0.125168 5.10976e-17)
(1.1574 0.124574 0)
(1.16662 0.123511 -7.84959e-19)
(1.17589 0.122001 -4.98216e-17)
(1.18523 0.120086 1.96088e-19)
(1.19432 0.117889 1.96046e-19)
(1.11217 0.116482 -1.01362e-16)
(1.12012 0.117745 3.94095e-19)
(1.12822 0.118539 -1.00777e-16)
(1.13655 0.118886 1.0069e-16)
(1.14509 0.118784 7.86116e-19)
(1.15378 0.11824 -7.85734e-19)
(1.16257 0.117266 4.94832e-17)
(1.17143 0.115882 7.85259e-19)
(1.18035 0.114125 0)
(1.18905 0.112112 0)
(1.11054 0.110554 -3.93386e-19)
(1.11811 0.111719 1.01149e-16)
(1.12583 0.112456 1.00695e-16)
(1.13379 0.11278 -1.01438e-16)
(1.14194 0.112692 5.10981e-17)
(1.15024 0.112196 0)
(1.15865 0.111306 -5.02996e-17)
(1.16712 0.110038 -3.92957e-19)
(1.17566 0.108427 3.92971e-19)
(1.184 0.106583 0)
(1.10884 0.104867 3.93209e-19)
(1.11607 0.105948 -1.01017e-16)
(1.12345 0.106636 -1.00612e-16)
(1.13106 0.106944 1.00614e-16)
(1.13886 0.106871 -1.00624e-16)
(1.1468 0.106423 0)
(1.15485 0.105611 0)
(1.16297 0.10445 -3.93289e-19)
(1.17115 0.102974 -2.4979e-17)
(1.17916 0.101284 2.53767e-17)
(1.1071 0.0994081 1.00017e-16)
(1.11401 0.100418 -1.00099e-16)
(1.12109 0.101065 1.0053e-16)
(1.12838 0.101361 -5.10733e-17)
(1.13586 0.101304 7.8616e-19)
(1.14347 0.100902 0)
(1.15119 0.100163 -5.03617e-17)
(1.15898 0.0991015 -3.93621e-19)
(1.16683 0.0977498 2.55951e-17)
(1.17453 0.0962006 -2.52088e-17)
(1.10533 0.0941677 0)
(1.11197 0.0951148 1.00361e-16)
(1.11876 0.0957279 -1.00447e-16)
(1.12576 0.0960145 5.10539e-17)
(1.13294 0.0959751 4.95263e-17)
(1.14025 0.0956153 0)
(1.14766 0.0949444 4.96053e-17)
(1.15515 0.0939755 3.93961e-19)
(1.1627 0.0927379 1.9709e-19)
(1.17011 0.0913187 1.97171e-19)
(1.10357 0.0891346 3.90775e-19)
(1.10994 0.090027 -3.91523e-19)
(1.11647 0.0906105 1.00365e-16)
(1.12321 0.0908904 7.8514e-19)
(1.13011 0.0908679 -5.03126e-17)
(1.13715 0.0905485 4.95842e-17)
(1.14428 0.0899408 -4.96359e-17)
(1.15148 0.089057 2.40516e-17)
(1.15875 0.0879247 5.91867e-19)
(1.16589 0.0866249 -1.97397e-19)
(1.10182 0.0842982 9.94646e-17)
(1.10795 0.0851421 3.91011e-19)
(1.11424 0.0856994 0)
(1.12073 0.0859743 0)
(1.12738 0.0859682 2.31284e-23)
(1.13416 0.0856865 -5.03881e-17)
(1.14104 0.0851373 1.00121e-16)
(1.14798 0.0843322 3.94642e-19)
(1.15498 0.0832968 1.97493e-19)
(1.16188 0.082107 1.28455e-17)
(1.10009 0.079648 -9.92819e-17)
(1.10601 0.0804482 -3.90501e-19)
(1.11208 0.0809822 -5.01004e-17)
(1.11834 0.081253 0)
(1.12476 0.0812623 5.03127e-17)
(1.1313 0.0810156 0)
(1.13794 0.0805205 -4.96972e-17)
(1.14464 0.0797879 -2.64621e-17)
(1.1514 0.078842 3.95388e-19)
(1.15806 0.0777533 1.32169e-23)
(1.0984 0.0751735 -9.98767e-17)
(1.10412 0.0759339 3.89991e-19)
(1.10999 0.0764466 5.00594e-17)
(1.11604 0.0767138 -7.84237e-19)
(1.12224 0.0767375 7.8614e-19)
(1.12856 0.0765231 0)
(1.13498 0.0760779 -7.89327e-19)
(1.14145 0.0754122 3.95296e-19)
(1.14799 0.0745486 1.97898e-19)
(1.15443 0.0735532 -1.24789e-17)
(1.09676 0.0708649 9.89178e-17)
(1.10229 0.0715885 3.89483e-19)
(1.10797 0.0720813 -7.81534e-19)
(1.11383 0.0723449 1.56788e-18)
(1.11984 0.0723817 -7.8614e-19)
(1.12595 0.0721969 0)
(1.13216 0.0717976 -2.52741e-17)
(1.13843 0.0711935 0)
(1.14476 0.0704059 0)
(1.151 0.0694964 1.26916e-17)
(1.09516 0.0667123 4.95618e-17)
(1.10052 0.0674014 0)
(1.10603 0.0678753 0)
(1.11172 0.0681351 -7.83634e-19)
(1.11754 0.0681835 -4.95266e-17)
(1.12347 0.0680258 0)
(1.12949 0.0676686 2.608e-17)
(1.13557 0.0671213 -1.18789e-18)
(1.14169 0.0664037 3.96606e-19)
(1.14775 0.0655734 -1.27063e-17)
(1.09362 0.0627064 -9.93287e-17)
(1.09883 0.0633626 3.88468e-19)
(1.10419 0.0638181 7.80253e-19)
(1.10971 0.0640737 -5.17001e-17)
(1.11536 0.0641323 1.02198e-16)
(1.12112 0.0639991 -7.88634e-19)
(1.12696 0.0636805 2.53053e-17)
(1.13285 0.0631854 -3.96297e-19)
(1.1388 0.0625324 1.98508e-19)
(1.14468 0.0617752 1.98766e-19)
(1.09215 0.058838 4.89949e-17)
(1.09721 0.0594626 3.87963e-19)
(1.10242 0.0598999 0)
(1.10779 0.0601507 4.9331e-17)
(1.11329 0.0602179 -4.95265e-17)
(1.11889 0.0601067 2.52446e-17)
(1.12456 0.0598234 1.75667e-24)
(1.1303 0.0593763 -3.96633e-19)
(1.13607 0.058783 3.97422e-19)
(1.14179 0.0580933 0)
(1.09074 0.0550983 -3.8508e-19)
(1.09567 0.055692 3.87458e-19)
(1.10075 0.0561112 0)
(1.10598 0.0563564 -5.00947e-17)
(1.11133 0.0564307 7.8613e-19)
(1.11678 0.0563393 -5.12951e-17)
(1.12231 0.0560881 -2.53366e-17)
(1.12789 0.0556851 -2.58031e-17)
(1.13351 0.0551468 1.98917e-19)
(1.13908 0.0545195 1.99226e-19)
(1.0894 0.0514787 -4.95848e-17)
(1.09422 0.0520422 4.99169e-17)
(1.09917 0.0524429 0)
(1.10427 0.0526817 5.08577e-17)
(1.10949 0.0527616 -7.86134e-19)
(1.1148 0.0526877 2.52614e-17)
(1.12019 0.0524658 0)
(1.12563 0.0521033 2.50305e-17)
(1.1311 0.0516158 5.97361e-19)
(1.13653 0.0510461 -1.99457e-19)
(1.08814 0.0479711 4.87271e-17)
(1.09284 0.0485045 3.8641e-19)
(1.09768 0.0488866 7.77697e-19)
(1.10266 0.0491179 -7.82125e-19)
(1.10776 0.049202 0)
(1.11295 0.0491435 2.52698e-17)
(1.11821 0.0489481 -2.61606e-17)
(1.12351 0.0486228 2.5847e-17)
(1.12885 0.0481822 1.99327e-19)
(1.13415 0.047666 1.29797e-17)
(1.08694 0.0445674 -4.90213e-17)
(1.09155 0.0450709 -4.94014e-17)
(1.09628 0.0454338 0)
(1.10116 0.0456569 0)
(1.10614 0.0457436 0)
(1.11122 0.0456986 -5.05563e-17)
(1.11635 0.0455271 7.93231e-19)
(1.12154 0.0452361 -2.6665e-17)
(1.12676 0.0448388 3.99064e-19)
(1.13193 0.044372 -1.27948e-17)
(1.08583 0.04126 -3.82238e-19)
(1.09034 0.0417335 3.85448e-19)
(1.09498 0.0420767 -7.76422e-19)
(1.09975 0.0422906 7.81518e-19)
(1.10464 0.0423786 7.8612e-19)
(1.1096 0.0423452 -7.90203e-19)
(1.11463 0.0421954 2.46054e-17)
(1.11971 0.0419357 3.98328e-19)
(1.12481 0.0415785 3.99476e-19)
(1.12987 0.0411577 0)
(1.08479 0.0380416 4.84616e-17)
(1.08921 0.0384848 3.84948e-19)
(1.09377 0.0388078 2.48252e-17)
(1.09845 0.0390116 7.81209e-19)
(1.10324 0.0390995 -4.86635e-24)
(1.10811 0.0390759 -7.90465e-19)
(1.11304 0.0389457 0)
(1.11801 0.0387148 0)
(1.123 0.0383948 1.27964e-17)
(1.12797 0.0380166 0)
(1.08382 0.034905 3.80894e-19)
(1.08817 0.0353176 -3.84449e-19)
(1.09265 0.0356198 -2.558e-17)
(1.09725 0.0358125 4.67212e-24)
(1.10195 0.0358991 7.86117e-19)
(1.10673 0.0358839 2.53033e-17)
(1.11157 0.0357712 2.54305e-17)
(1.11645 0.0355668 -3.99002e-19)
(1.12135 0.0352811 -1.24094e-17)
(1.12622 0.0349427 0)
(1.08294 0.0318432 -3.80203e-19)
(1.08722 0.0322249 3.83951e-19)
(1.09162 0.0325057 -2.47844e-17)
(1.09615 0.0326865 0)
(1.10077 0.0327707 0)
(1.10547 0.0327622 0)
(1.11022 0.0326653 -2.54462e-17)
(1.11501 0.0324852 -1.31783e-17)
(1.11983 0.0322315 4.00718e-19)
(1.12461 0.0319301 0)
(1.08213 0.0288497 -3.79514e-19)
(1.08634 0.0292001 3.83454e-19)
(1.09069 0.0294588 2.39902e-17)
(1.09514 0.0296269 4.49505e-24)
(1.0997 0.0297076 7.86107e-19)
(1.10432 0.0297045 0)
(1.109 0.0296218 7.95683e-19)
(1.11371 0.029464 1.15908e-17)
(1.11844 0.0292401 -1.24351e-17)
(1.12315 0.0289733 0)
(1.08139 0.0259179 0)
(1.08556 0.0262366 2.45092e-17)
(1.08984 0.0264726 2.47438e-17)
(1.09424 0.0266272 -7.79989e-19)
(1.09872 0.0267034 7.86101e-19)
(1.10328 0.0267046 0)
(1.10789 0.0266344 1.3535e-17)
(1.11254 0.0264973 -1.20008e-18)
(1.1172 0.0263012 1.30503e-17)
(1.12183 0.0260669 2.01322e-19)
(1.08074 0.0230417 -3.78142e-19)
(1.08485 0.0233281 -2.40951e-17)
(1.08909 0.0235409 -2.39508e-17)
(1.09343 0.0236813 -4.35279e-24)
(1.09786 0.023752 -7.86095e-19)
(1.10236 0.0237563 0)
(1.10691 0.0236975 -1.35434e-17)
(1.11149 0.0235795 4.00371e-19)
(1.11608 0.0234094 6.0295e-19)
(1.12066 0.0232055 -2.01557e-19)
(1.08016 0.0202148 3.77459e-19)
(1.08423 0.0204685 -3.81968e-19)
(1.08842 0.0206575 0)
(1.09271 0.020783 0)
(1.09709 0.0208475 0)
(1.10154 0.0208539 -1.26725e-17)
(1.10604 0.0208053 -1.27546e-17)
(1.11056 0.020705 -4.00709e-19)
(1.1151 0.0205593 2.01194e-19)
(1.11962 0.0203842 2.01793e-19)
(1.07965 0.0174313 -3.76778e-19)
(1.08369 0.0176518 3.81474e-19)
(1.08784 0.0178165 1.31128e-17)
(1.09209 0.0179265 -1.32442e-17)
(1.09643 0.0179841 0)
(1.10083 0.0179918 2.53534e-17)
(1.10528 0.0179523 1.27624e-17)
(1.10975 0.0178685 6.01579e-18)
(1.11424 0.0177458 -6.24344e-18)
(1.11871 0.0175978 2.0203e-19)
(1.07922 0.0146852 -1.24113e-17)
(1.08323 0.0148722 1.25724e-17)
(1.08735 0.0150121 -1.23313e-17)
(1.09156 0.0151061 2.41418e-17)
(1.09586 0.0151561 7.86075e-19)
(1.10023 0.0151644 -2.53617e-17)
(1.10463 0.0151331 6.38516e-18)
(1.10907 0.0150647 -6.82373e-18)
(1.11351 0.0149637 6.85478e-18)
(1.11793 0.0148416 0)
(1.07887 0.0119708 1.23889e-17)
(1.08285 0.0121238 -3.80493e-19)
(1.08694 0.0122386 -7.70069e-19)
(1.09113 0.0123162 -1.16769e-17)
(1.0954 0.0123582 0)
(1.09973 0.0123664 1.2685e-17)
(1.1041 0.0123425 -7.18774e-18)
(1.1085 0.0122885 -5.22261e-18)
(1.1129 0.0122081 -6.05465e-19)
(1.11729 0.0121105 2.02505e-19)
(1.07859 0.00928238 -1.19919e-17)
(1.08255 0.00940109 -2.07784e-24)
(1.08662 0.00949049 7.69436e-19)
(1.09078 0.00955134 -1.5563e-18)
(1.09502 0.00958487 1.57211e-18)
(1.09933 0.00959239 -7.13766e-18)
(1.10367 0.00957519 5.59392e-18)
(1.10804 0.0095348 3.61876e-18)
(1.11242 0.00947394 3.83861e-18)
(1.11678 0.00939981 -2.02743e-19)
(1.07837 0.00661417 1.15963e-17)
(1.08232 0.00669835 -1.17648e-17)
(1.08638 0.00676211 0)
(1.09052 0.00680591 0)
(1.09475 0.00683051 7.86046e-19)
(1.09903 0.0068368 5.55333e-18)
(1.10335 0.00682564 -6.397e-18)
(1.1077 0.00679807 2.817e-18)
(1.11205 0.00675599 -3.03364e-18)
(1.11639 0.00670444 2.02982e-19)
(1.07823 0.00396045 3.734e-19)
(1.08217 0.00400976 -3.7902e-19)
(1.08622 0.00404749 3.07269e-18)
(1.09035 0.00407377 -7.77535e-19)
(1.09457 0.00408895 3.14416e-18)
(1.09883 0.00409348 -2.38078e-18)
(1.10314 0.0040878 0)
(1.10747 0.00407249 -4.02773e-19)
(1.11181 0.00404863 4.0491e-19)
(1.11613 0.00401914 -8.12881e-19)
(1.07816 0.0013172 -3.73758e-19)
(1.0821 0.00133249 3.7961e-19)
(1.08614 0.00134446 -3.84895e-18)
(1.09027 0.00135303 7.79568e-19)
(1.09447 0.00135825 -1.5769e-18)
(1.09874 0.00136023 1.59269e-18)
(1.10304 0.00135907 0)
(1.10736 0.00135489 -4.04426e-19)
(1.11169 0.00134802 2.03333e-19)
(1.116 0.00133934 1.02067e-18)
(1.73098 0.0343736 0)
(1.09458 0.0107724 0)
(0.973721 0.0184322 0)
(1.02982 0.0365562 0)
(1.04451 0.0459785 0)
(1.03902 0.0532186 0)
(1.036 0.0619274 0)
(1.035 0.0714578 0)
(1.0338 0.0814035 0)
(1.03234 0.0919558 0)
(1.03091 0.103305 0)
(1.02966 0.115561 0)
(1.02867 0.128829 0)
(1.0281 0.14322 0)
(1.0281 0.158844 0)
(1.0289 0.175787 0)
(1.03076 0.194087 0)
(1.03405 0.213677 0)
(1.03927 0.234218 0)
(1.0461 0.254377 0)
(1.73779 0.0227323 0)
(1.08146 0.0148771 0)
(0.97581 0.0223932 0)
(1.03409 0.0366975 0)
(1.0455 0.0460174 0)
(1.03981 0.0539302 0)
(1.0377 0.0628141 0)
(1.03726 0.0723403 0)
(1.03655 0.0822781 0)
(1.03569 0.0927796 0)
(1.03497 0.103996 0)
(1.03449 0.116024 0)
(1.03436 0.128952 0)
(1.03472 0.142868 0)
(1.03575 0.157851 0)
(1.03766 0.173952 0)
(1.04071 0.191161 0)
(1.04527 0.209316 0)
(1.05172 0.227862 0)
(1.05923 0.245227 0)
(1.74217 0.0144127 0)
(1.07475 0.0181466 0)
(0.974936 0.0254944 0)
(1.03513 0.0365223 0)
(1.0457 0.0457652 0)
(1.04025 0.0542909 0)
(1.03886 0.0633005 0)
(1.039 0.072776 0)
(1.03881 0.0826595 0)
(1.03856 0.0930619 0)
(1.03852 0.104095 0)
(1.03877 0.11584 0)
(1.03942 0.128371 0)
(1.04061 0.141753 0)
(1.04252 0.156036 0)
(1.04535 0.171239 0)
(1.04934 0.187311 0)
(1.05477 0.204046 0)
(1.06197 0.220846 0)
(1.07021 0.236254 0)
(1.74585 0.0107276 0)
(1.07144 0.0186035 0)
(0.973476 0.0263076 0)
(1.03505 0.0361236 0)
(1.04559 0.0454056 0)
(1.04045 0.0542682 0)
(1.03963 0.0633624 0)
(1.04031 0.0728074 0)
(1.04067 0.0826259 0)
(1.041 0.0929044 0)
(1.04159 0.103731 0)
(1.04251 0.115176 0)
(1.04387 0.127297 0)
(1.0458 0.140142 0)
(1.04847 0.15374 0)
(1.05206 0.168084 0)
(1.05677 0.1831 0)
(1.06286 0.198575 0)
(1.07057 0.213944 0)
(1.07933 0.22783 0)
(1.74928 0.00911411 0)
(1.06983 0.0182272 0)
(0.972324 0.0262449 0)
(1.0348 0.0356062 0)
(1.04546 0.0448644 0)
(1.04055 0.0538718 0)
(1.04017 0.0630075 0)
(1.04133 0.0724134 0)
(1.04219 0.0821418 0)
(1.04306 0.0922656 0)
(1.04422 0.102858 0)
(1.04575 0.113978 0)
(1.04773 0.12567 0)
(1.0503 0.137969 0)
(1.05362 0.150884 0)
(1.05783 0.164394 0)
(1.06313 0.178413 0)
(1.0697 0.19273 0)
(1.07776 0.206822 0)
(1.08684 0.219387 0)
(1.75265 0.00834861 0)
(1.06916 0.0178003 0)
(0.971573 0.0259275 0)
(1.03464 0.0350091 0)