/*--------------------------------*- C++ -*----------------------------------*\
  =========                 |
  \\      /  F ield         | OpenFOAM: The Open Source CFD Toolbox
   \\    /   O peration     | Website:  https://openfoam.org
    \\  /    A nd           | Version:  6
     \\/     M anipulation  |
\*---------------------------------------------------------------------------*/
FoamFile
{
    version     2.0;
    format      ascii;
    class       volScalarField;
    location    "1.45";
    object      p;
}
// * * * * * * * * * * * * * * * * * * * * * * * * * * * * * * * * * * * * * //

dimensions      [0 2 -2 0 0 0 0];

internalField   nonuniform List<scalar> 
5600
(
999.839
999.763
999.779
999.792
999.794
999.795
999.798
999.802
999.806
999.812
999.818
999.825
999.833
999.842
999.852
999.864
999.876
999.891
999.907
999.924
999.835
999.761
999.778
999.791
999.793
999.794
999.797
999.801
999.805
999.811
999.817
999.824
999.832
999.841
999.852
999.863
999.876
999.891
999.906
999.924
999.831
999.757
999.775
999.788
999.79
999.791
999.794
999.798
999.802
999.807
999.814
999.821
999.828
999.837
999.847
999.858
999.871
999.884
999.899
999.915
999.827
999.752
999.771
999.784
999.786
999.787
999.789
999.793
999.797
999.802
999.808
999.814
999.821
999.83
999.839
999.849
999.86
999.872
999.885
999.899
999.821
999.745
999.765
999.779
999.78
999.781
999.783
999.786
999.79
999.794
999.799
999.805
999.812
999.819
999.827
999.835
999.845
999.854
999.865
999.876
999.815
999.737
999.759
999.772
999.773
999.773
999.775
999.778
999.782
999.785
999.79
999.795
999.8
999.806
999.813
999.82
999.827
999.835
999.843
999.851
999.807
999.728
999.751
999.765
999.765
999.765
999.767
999.769
999.772
999.776
999.779
999.783
999.788
999.792
999.797
999.802
999.807
999.812
999.817
999.822
999.798
999.718
999.743
999.756
999.757
999.756
999.757
999.76
999.762
999.764
999.767
999.77
999.774
999.777
999.78
999.783
999.786
999.787
999.788
999.789
999.788
999.707
999.734
999.748
999.747
999.746
999.747
999.749
999.751
999.753
999.755
999.757
999.759
999.761
999.763
999.764
999.764
999.763
999.761
999.757
999.773
999.695
999.725
999.738
999.737
999.736
999.737
999.738
999.739
999.741
999.742
999.743
999.744
999.745
999.745
999.744
999.742
999.738
999.732
999.725
999.948
999.978
1000.01
1000.05
1000.1
1000.15
1000.21
1000.28
1000.37
1000.47
999.946
999.975
1000.01
1000.05
1000.09
1000.14
1000.2
1000.27
1000.35
1000.46
999.935
999.963
999.995
1000.03
1000.08
1000.12
1000.18
1000.24
1000.32
1000.43
999.914
999.939
999.97
1000
1000.04
1000.09
1000.14
1000.19
1000.27
1000.39
999.887
999.908
999.937
999.968
1000
1000.04
1000.09
1000.13
1000.2
1000.31
999.856
999.874
999.899
999.927
999.957
999.99
1000.03
1000.06
1000.12
1000.2
999.82
999.835
999.856
999.879
999.903
999.929
999.956
999.982
1000.02
1000.07
999.78
999.79
999.808
999.826
999.844
999.863
999.88
999.895
999.917
999.962
999.74
999.747
999.762
999.775
999.787
999.798
999.807
999.814
999.829
999.88
999.699
999.705
999.716
999.724
999.73
999.734
999.735
999.735
999.75
999.822
999.667
999.675
999.68
999.68
999.677
999.668
999.651
999.629
999.625
999.713
999.63
999.632
999.63
999.624
999.612
999.591
999.558
999.509
999.445
999.376
999.586
999.584
999.575
999.562
999.543
999.514
999.472
999.413
999.33
999.214
999.54
999.534
999.521
999.503
999.479
999.445
999.399
999.34
999.265
999.169
999.495
999.485
999.468
999.445
999.416
999.377
999.328
999.269
999.201
999.132
999.45
999.436
999.415
999.388
999.354
999.311
999.258
999.2
999.141
999.093
999.406
999.388
999.363
999.332
999.294
999.248
999.195
999.138
999.088
999.057
999.364
999.342
999.314
999.281
999.241
999.193
999.141
999.088
999.047
999.031
999.324
999.3
999.271
999.236
999.196
999.15
999.1
999.053
999.018
999.013
999.289
999.264
999.234
999.199
999.16
999.115
999.066
999.017
998.971
998.949
999.661
999.623
999.579
999.536
999.494
999.453
999.413
999.374
999.338
999.306
999.646
999.611
999.57
999.53
999.492
999.454
999.417
999.382
999.349
999.318
999.631
999.597
999.56
999.523
999.488
999.454
999.42
999.388
999.358
999.329
999.617
999.585
999.55
999.517
999.485
999.453
999.423
999.393
999.365
999.339
999.605
999.575
999.543
999.512
999.482
999.453
999.425
999.398
999.372
999.347
999.593
999.566
999.536
999.507
999.48
999.454
999.428
999.402
999.379
999.355
999.583
999.557
999.53
999.503
999.478
999.454
999.43
999.406
999.384
999.362
999.574
999.55
999.524
999.5
999.476
999.454
999.431
999.41
999.389
999.368
999.566
999.543
999.519
999.497
999.475
999.454
999.433
999.413
999.393
999.374
999.558
999.537
999.515
999.494
999.474
999.454
999.434
999.415
999.397
999.379
999.551
999.532
999.511
999.491
999.472
999.454
999.436
999.418
999.401
999.383
999.545
999.527
999.507
999.489
999.471
999.454
999.437
999.42
999.404
999.387
999.539
999.522
999.504
999.487
999.47
999.454
999.438
999.422
999.407
999.391
999.534
999.518
999.501
999.485
999.469
999.454
999.439
999.424
999.409
999.394
999.53
999.514
999.498
999.483
999.468
999.454
999.44
999.425
999.412
999.397
999.525
999.511
999.496
999.482
999.468
999.454
999.44
999.427
999.414
999.4
999.521
999.508
999.494
999.48
999.467
999.454
999.441
999.428
999.416
999.403
999.518
999.505
999.491
999.479
999.466
999.454
999.441
999.429
999.417
999.405
999.514
999.502
999.489
999.477
999.465
999.454
999.442
999.43
999.419
999.407
999.511
999.499
999.488
999.476
999.465
999.454
999.442
999.431
999.42
999.409
999.508
999.497
999.486
999.475
999.464
999.453
999.443
999.432
999.422
999.411
999.506
999.495
999.484
999.474
999.463
999.453
999.443
999.433
999.423
999.412
999.503
999.493
999.483
999.473
999.463
999.453
999.443
999.434
999.424
999.414
999.501
999.491
999.481
999.472
999.462
999.453
999.444
999.434
999.425
999.415
999.498
999.489
999.48
999.471
999.462
999.453
999.444
999.435
999.426
999.417
999.496
999.488
999.479
999.47
999.461
999.453
999.444
999.435
999.426
999.418
999.495
999.486
999.478
999.469
999.461
999.452
999.444
999.436
999.427
999.419
999.493
999.485
999.477
999.468
999.46
999.452
999.444
999.436
999.428
999.42
999.491
999.483
999.476
999.468
999.46
999.452
999.444
999.436
999.428
999.42
999.49
999.482
999.475
999.467
999.459
999.452
999.444
999.437
999.429
999.421
999.488
999.481
999.474
999.466
999.459
999.452
999.444
999.437
999.429
999.422
999.487
999.48
999.473
999.466
999.459
999.451
999.444
999.437
999.43
999.423
999.486
999.479
999.472
999.465
999.458
999.451
999.444
999.437
999.43
999.423
999.484
999.478
999.471
999.465
999.458
999.451
999.444
999.437
999.431
999.424
999.483
999.477
999.471
999.464
999.458
999.451
999.444
999.438
999.431
999.424
999.482
999.476
999.47
999.464
999.457
999.451
999.444
999.438
999.431
999.425
999.481
999.475
999.469
999.463
999.457
999.451
999.444
999.438
999.431
999.425
999.481
999.475
999.469
999.463
999.457
999.45
999.444
999.438
999.432
999.425
999.48
999.474
999.468
999.462
999.456
999.45
999.444
999.438
999.432
999.426
999.479
999.474
999.468
999.462
999.456
999.45
999.444
999.438
999.432
999.426
999.478
999.473
999.467
999.462
999.456
999.45
999.444
999.438
999.432
999.426
999.478
999.473
999.467
999.461
999.456
999.45
999.444
999.438
999.432
999.426
999.477
999.472
999.467
999.461
999.456
999.45
999.444
999.438
999.432
999.427
999.477
999.472
999.466
999.461
999.455
999.45
999.444
999.438
999.433
999.427
999.477
999.471
999.466
999.461
999.455
999.45
999.444
999.438
999.433
999.427
999.476
999.471
999.466
999.461
999.455
999.45
999.444
999.438
999.433
999.427
999.476
999.471
999.466
999.46
999.455
999.45
999.444
999.438
999.433
999.427
999.476
999.471
999.466
999.46
999.455
999.449
999.444
999.438
999.433
999.427
999.476
999.471
999.466
999.46
999.455
999.449
999.444
999.438
999.433
999.427
999.476
999.471
999.465
999.46
999.455
999.449
999.444
999.438
999.433
999.427
999.746
999.684
999.72
999.729
999.726
999.725
999.725
999.726
999.726
999.726
999.726
999.726
999.725
999.723
999.721
999.717
999.712
999.704
999.692
999.673
999.733
999.675
999.714
999.721
999.718
999.717
999.717
999.717
999.716
999.716
999.715
999.714
999.712
999.71
999.706
999.701
999.694
999.685
999.673
999.655
999.724
999.667
999.707
999.714
999.71
999.709
999.708
999.708
999.707
999.706
999.705
999.703
999.701
999.697
999.693
999.687
999.68
999.671
999.659
999.643
999.716
999.658
999.699
999.706
999.702
999.701
999.7
999.699
999.698
999.697
999.695
999.692
999.689
999.686
999.681
999.674
999.667
999.657
999.645
999.63
999.709
999.649
999.692
999.699
999.694
999.693
999.692
999.691
999.689
999.687
999.685
999.682
999.679
999.674
999.669
999.662
999.654
999.644
999.632
999.618
999.702
999.641
999.684
999.691
999.687
999.685
999.684
999.682
999.68
999.678
999.675
999.672
999.668
999.663
999.658
999.651
999.642
999.632
999.621
999.607
999.694
999.632
999.676
999.684
999.679
999.677
999.675
999.674
999.672
999.669
999.666
999.662
999.658
999.653
999.647
999.64
999.631
999.622
999.61
999.597
999.687
999.624
999.669
999.676
999.671
999.669
999.667
999.666
999.663
999.66
999.657
999.653
999.649
999.643
999.637
999.63
999.621
999.612
999.601
999.588
999.68
999.615
999.661
999.669
999.664
999.661
999.66
999.658
999.655
999.652
999.649
999.644
999.64
999.634
999.628
999.62
999.612
999.602
999.592
999.579
999.674
999.607
999.654
999.662
999.656
999.654
999.652
999.65
999.647
999.644
999.64
999.636
999.631
999.626
999.619
999.612
999.603
999.594
999.583
999.572
999.667
999.599
999.647
999.655
999.649
999.646
999.645
999.642
999.64
999.636
999.632
999.628
999.623
999.617
999.611
999.604
999.595
999.586
999.576
999.564
999.66
999.591
999.64
999.648
999.642
999.639
999.638
999.635
999.632
999.629
999.625
999.62
999.615
999.61
999.603
999.596
999.588
999.579
999.569
999.558
999.654
999.583
999.633
999.641
999.636
999.633
999.631
999.628
999.625
999.622
999.618
999.613
999.608
999.602
999.596
999.589
999.581
999.572
999.562
999.552
999.648
999.576
999.627
999.635
999.629
999.626
999.624
999.621
999.618
999.615
999.611
999.606
999.601
999.595
999.589
999.582
999.574
999.566
999.557
999.546
999.642
999.568
999.62
999.629
999.623
999.619
999.618
999.615
999.612
999.608
999.604
999.6
999.595
999.589
999.583
999.576
999.568
999.56
999.551
999.541
999.636
999.561
999.614
999.623
999.616
999.613
999.611
999.609
999.606
999.602
999.598
999.593
999.588
999.583
999.577
999.57
999.563
999.555
999.546
999.537
999.63
999.554
999.608
999.617
999.611
999.607
999.605
999.603
999.6
999.596
999.592
999.587
999.583
999.577
999.571
999.564
999.557
999.55
999.541
999.532
999.625
999.548
999.602
999.611
999.605
999.602
999.6
999.597
999.594
999.59
999.586
999.582
999.577
999.572
999.566
999.559
999.552
999.545
999.537
999.528
999.619
999.541
999.597
999.606
999.599
999.596
999.594
999.592
999.588
999.585
999.581
999.577
999.572
999.566
999.561
999.554
999.548
999.54
999.533
999.524
999.614
999.535
999.591
999.601
999.594
999.591
999.589
999.586
999.583
999.58
999.576
999.571
999.567
999.562
999.556
999.55
999.543
999.536
999.529
999.521
999.61
999.529
999.586
999.596
999.589
999.586
999.584
999.581
999.578
999.575
999.571
999.567
999.562
999.557
999.551
999.546
999.539
999.532
999.525
999.518
999.605
999.524
999.581
999.591
999.584
999.581
999.579
999.576
999.573
999.57
999.566
999.562
999.558
999.553
999.547
999.542
999.535
999.529
999.522
999.515
999.6
999.518
999.577
999.586
999.58
999.576
999.574
999.572
999.569
999.566
999.562
999.558
999.553
999.549
999.543
999.538
999.532
999.525
999.519
999.512
999.596
999.513
999.572
999.582
999.575
999.572
999.57
999.568
999.565
999.561
999.558
999.554
999.549
999.545
999.54
999.534
999.528
999.522
999.516
999.509
999.592
999.508
999.568
999.578
999.571
999.568
999.566
999.563
999.561
999.557
999.554
999.55
999.546
999.541
999.536
999.531
999.525
999.519
999.513
999.507
999.588
999.503
999.564
999.574
999.567
999.564
999.562
999.56
999.557
999.553
999.55
999.546
999.542
999.538
999.533
999.528
999.522
999.517
999.51
999.504
999.585
999.499
999.56
999.57
999.563
999.56
999.558
999.556
999.553
999.55
999.546
999.543
999.539
999.534
999.53
999.525
999.519
999.514
999.508
999.502
999.581
999.495
999.556
999.566
999.56
999.556
999.555
999.552
999.55
999.546
999.543
999.54
999.536
999.531
999.527
999.522
999.517
999.511
999.506
999.5
999.578
999.491
999.553
999.563
999.556
999.553
999.551
999.549
999.546
999.543
999.54
999.536
999.533
999.528
999.524
999.519
999.514
999.509
999.504
999.498
999.575
999.487
999.549
999.56
999.553
999.55
999.548
999.546
999.543
999.54
999.537
999.534
999.53
999.526
999.522
999.517
999.512
999.507
999.502
999.496
999.572
999.483
999.546
999.557
999.55
999.547
999.545
999.543
999.54
999.537
999.534
999.531
999.527
999.523
999.519
999.515
999.51
999.505
999.5
999.495
999.569
999.48
999.543
999.554
999.547
999.544
999.542
999.54
999.538
999.535
999.532
999.528
999.525
999.521
999.517
999.513
999.508
999.503
999.498
999.493
999.566
999.477
999.54
999.551
999.544
999.541
999.54
999.538
999.535
999.532
999.529
999.526
999.523
999.519
999.515
999.511
999.506
999.501
999.497
999.492
999.564
999.474
999.538
999.549
999.542
999.539
999.537
999.535
999.533
999.53
999.527
999.524
999.52
999.517
999.513
999.509
999.504
999.5
999.495
999.49
999.562
999.471
999.535
999.547
999.539
999.536
999.535
999.533
999.53
999.528
999.525
999.522
999.518
999.515
999.511
999.507
999.503
999.498
999.494
999.489
999.56
999.469
999.533
999.544
999.537
999.534
999.533
999.531
999.528
999.526
999.523
999.52
999.517
999.513
999.509
999.505
999.501
999.497
999.492
999.488
999.558
999.466
999.531
999.542
999.535
999.532
999.531
999.529
999.527
999.524
999.521
999.518
999.515
999.511
999.508
999.504
999.5
999.496
999.491
999.487
999.556
999.464
999.529
999.54
999.533
999.53
999.529
999.527
999.525
999.522
999.519
999.517
999.513
999.51
999.506
999.503
999.499
999.495
999.49
999.486
999.554
999.462
999.528
999.539
999.532
999.529
999.527
999.525
999.523
999.521
999.518
999.515
999.512
999.509
999.505
999.501
999.497
999.493
999.489
999.485
999.553
999.46
999.526
999.537
999.53
999.527
999.526
999.524
999.522
999.519
999.517
999.514
999.511
999.507
999.504
999.5
999.496
999.492
999.488
999.484
999.551
999.459
999.524
999.536
999.529
999.526
999.524
999.523
999.52
999.518
999.515
999.512
999.509
999.506
999.503
999.499
999.496
999.492
999.488
999.483
999.55
999.457
999.523
999.535
999.528
999.524
999.523
999.521
999.519
999.517
999.514
999.511
999.508
999.505
999.502
999.498
999.495
999.491
999.487
999.483
999.549
999.456
999.522
999.533
999.526
999.523
999.522
999.52
999.518
999.516
999.513
999.51
999.508
999.504
999.501
999.498
999.494
999.49
999.486
999.482
999.548
999.455
999.521
999.533
999.525
999.522
999.521
999.519
999.517
999.515
999.512
999.51
999.507
999.504
999.5
999.497
999.493
999.49
999.486
999.482
999.547
999.454
999.52
999.532
999.525
999.522
999.52
999.519
999.516
999.514
999.512
999.509
999.506
999.503
999.5
999.496
999.493
999.489
999.485
999.481
999.547
999.453
999.519
999.531
999.524
999.521
999.52
999.518
999.516
999.514
999.511
999.508
999.505
999.502
999.499
999.496
999.492
999.489
999.485
999.481
999.546
999.452
999.519
999.53
999.523
999.52
999.519
999.517
999.515
999.513
999.511
999.508
999.505
999.502
999.499
999.495
999.492
999.488
999.484
999.48
999.546
999.452
999.518
999.53
999.523
999.52
999.519
999.517
999.515
999.513
999.51
999.508
999.505
999.502
999.498
999.495
999.492
999.488
999.484
999.48
999.548
999.451
999.517
999.53
999.523
999.52
999.518
999.517
999.515
999.512
999.51
999.507
999.504
999.501
999.498
999.495
999.491
999.488
999.484
999.48
999.558
999.451
999.515
999.53
999.523
999.52
999.518
999.517
999.515
999.512
999.51
999.507
999.504
999.501
999.498
999.495
999.491
999.488
999.484
999.48
999.146
999.107
999.073
999.042
999.01
998.976
998.939
998.899
998.851
998.794
999.149
999.111
999.078
999.048
999.018
998.985
998.951
998.914
998.871
998.824
999.141
999.11
999.08
999.052
999.023
998.993
998.961
998.927
998.888
998.847
999.133
999.106
999.079
999.053
999.026
998.998
998.968
998.936
998.901
998.865
999.127
999.103
999.078
999.054
999.029
999.002
998.974
998.944
998.913
998.883
999.122
999.101
999.078
999.055
999.032
999.006
998.979
998.952
998.924
998.9
999.117
999.099
999.079
999.058
999.035
999.011
998.986
998.961
998.936
998.916
999.114
999.098
999.08
999.06
999.039
999.016
998.993
998.969
998.947
998.93
999.113
999.099
999.082
999.063
999.043
999.021
998.997
998.974
998.954
998.94
999.114
999.1
999.083
999.065
999.044
999.022
998.999
998.977
998.957
998.945
999.125
999.134
999.143
999.152
999.161
999.17
999.178
999.187
999.195
999.202
999.209
999.216
999.223
999.23
999.236
999.242
999.247
999.253
999.258
999.263
999.268
999.272
999.276
999.281
999.285
999.288
999.292
999.295
999.299
999.302
999.305
999.308
999.311
999.314
999.317
999.319
999.322
999.325
999.327
999.33
999.332
999.335
999.338
999.34
999.343
999.346
999.349
999.352
999.356
999.359
999.12
999.129
999.139
999.149
999.158
999.167
999.175
999.184
999.192
999.2
999.207
999.214
999.221
999.228
999.234
999.24
999.246
999.251
999.257
999.262
999.266
999.271
999.275
999.28
999.284
999.287
999.291
999.295
999.298
999.301
999.305
999.308
999.311
999.313
999.316
999.319
999.322
999.324
999.327
999.329
999.332
999.335
999.337
999.34
999.343
999.345
999.348
999.352
999.355
999.358
999.115
999.124
999.134
999.145
999.154
999.164
999.173
999.181
999.189
999.197
999.205
999.212
999.219
999.226
999.232
999.239
999.244
999.25
999.255
999.26
999.265
999.27
999.274
999.279
999.283
999.287
999.29
999.294
999.297
999.301
999.304
999.307
999.31
999.313
999.316
999.318
999.321
999.324
999.326
999.329
999.331
999.334
999.336
999.339
999.342
999.344
999.347
999.35
999.354
999.356
999.11
999.118
999.13
999.141
999.151
999.161
999.17
999.179
999.187
999.196
999.203
999.211
999.218
999.225
999.231
999.237
999.243
999.249
999.254
999.26
999.264
999.269
999.274
999.278
999.282
999.286
999.29
999.293
999.297
999.3
999.303
999.306
999.309
999.312
999.315
999.318
999.32
999.323
999.325
999.328
999.33
999.333
999.335
999.338
999.341
999.343
999.346
999.349
999.352
999.354
999.105
999.112
999.126
999.138
999.149
999.159
999.168
999.177
999.186
999.194
999.202
999.21
999.217
999.224
999.23
999.237
999.243
999.248
999.254
999.259
999.264
999.269
999.273
999.277
999.281
999.285
999.289
999.293
999.296
999.299
999.303
999.306
999.309
999.312
999.314
999.317
999.32
999.322
999.325
999.327
999.329
999.332
999.334
999.337
999.339
999.341
999.344
999.346
999.349
999.351
999.1
999.107
999.123
999.136
999.147
999.157
999.167
999.176
999.185
999.193
999.201
999.209
999.216
999.223
999.23
999.236
999.242
999.248
999.253
999.258
999.263
999.268
999.272
999.277
999.281
999.285
999.289
999.292
999.296
999.299
999.302
999.305
999.308
999.311
999.314
999.316
999.319
999.321
999.324
999.326
999.328
999.331
999.333
999.335
999.337
999.339
999.341
999.344
999.346
999.348
999.097
999.102
999.119
999.134
999.145
999.156
999.166
999.175
999.184
999.193
999.201
999.208
999.216
999.222
999.229
999.235
999.241
999.247
999.252
999.257
999.262
999.267
999.272
999.276
999.28
999.284
999.288
999.291
999.295
999.298
999.301
999.304
999.307
999.31
999.312
999.315
999.317
999.32
999.322
999.324
999.327
999.329
999.331
999.333
999.335
999.337
999.338
999.34
999.342
999.343
999.093
999.099
999.118
999.133
999.145
999.156
999.166
999.175
999.184
999.192
999.2
999.208
999.215
999.222
999.228
999.235
999.24
999.246
999.251
999.257
999.261
999.266
999.271
999.275
999.279
999.283
999.287
999.29
999.294
999.297
999.3
999.303
999.306
999.308
999.311
999.314
999.316
999.318
999.321
999.323
999.325
999.327
999.329
999.33
999.332
999.334
999.335
999.337
999.338
999.339
999.09
999.099
999.12
999.135
999.146
999.157
999.167
999.176
999.184
999.193
999.2
999.208
999.215
999.221
999.228
999.234
999.24
999.245
999.251
999.256
999.261
999.265
999.27
999.274
999.278
999.282
999.286
999.289
999.292
999.296
999.299
999.302
999.304
999.307
999.31
999.312
999.315
999.317
999.319
999.321
999.323
999.325
999.326
999.328
999.329
999.331
999.332
999.333
999.334
999.335
999.093
999.107
999.127
999.14
999.151
999.16
999.17
999.178
999.186
999.194
999.202
999.209
999.215
999.222
999.228
999.234
999.24
999.245
999.25
999.255
999.26
999.265
999.269
999.273
999.277
999.281
999.285
999.288
999.291
999.295
999.298
999.3
999.303
999.306
999.308
999.311
999.313
999.315
999.317
999.319
999.321
999.322
999.324
999.325
999.326
999.327
999.328
999.329
999.33
999.33
999.154
999.145
999.145
999.15
999.158
999.166
999.174
999.182
999.19
999.197
999.204
999.211
999.217
999.224
999.23
999.235
999.241
999.246
999.251
999.256
999.261
999.265
999.27
999.274
999.277
999.281
999.285
999.288
999.291
999.294
999.297
999.3
999.303
999.305
999.308
999.31
999.312
999.314
999.316
999.318
999.319
999.321
999.322
999.323
999.324
999.325
999.325
999.326
999.326
999.326
999.171
999.163
999.159
999.163
999.168
999.175
999.182
999.188
999.195
999.202
999.208
999.215
999.221
999.226
999.232
999.238
999.243
999.248
999.253
999.257
999.262
999.266
999.27
999.274
999.278
999.281
999.285
999.288
999.291
999.294
999.297
999.3
999.302
999.305
999.307
999.309
999.311
999.313
999.315
999.316
999.318
999.319
999.32
999.321
999.322
999.322
999.323
999.323
999.323
999.322
999.175
999.173
999.171
999.174
999.179
999.184
999.189
999.195
999.201
999.207
999.213
999.219
999.224
999.23
999.235
999.24
999.245
999.25
999.254
999.259
999.263
999.267
999.271
999.275
999.278
999.282
999.285
999.288
999.291
999.294
999.297
999.299
999.302
999.304
999.306
999.308
999.31
999.312
999.313
999.315
999.316
999.317
999.318
999.319
999.319
999.32
999.32
999.32
999.32
999.319
999.182
999.182
999.182
999.184
999.188
999.192
999.197
999.202
999.207
999.213
999.218
999.223
999.228
999.233
999.238
999.243
999.248
999.252
999.256
999.261
999.265
999.268
999.272
999.276
999.279
999.282
999.285
999.288
999.291
999.294
999.296
999.299
999.301
999.303
999.305
999.307
999.309
999.31
999.312
999.313
999.314
999.315
999.316
999.317
999.317
999.317
999.317
999.317
999.316
999.316
999.19
999.191
999.192
999.194
999.197
999.201
999.205
999.209
999.214
999.218
999.223
999.228
999.232
999.237
999.241
999.246
999.25
999.254
999.258
999.262
999.266
999.27
999.273
999.276
999.28
999.283
999.286
999.289
999.291
999.294
999.296
999.298
999.301
999.303
999.304
999.306
999.308
999.309
999.311
999.312
999.313
999.314
999.314
999.315
999.315
999.315
999.315
999.314
999.313
999.313
999.199
999.201
999.201
999.203
999.206
999.209
999.212
999.216
999.22
999.224
999.228
999.232
999.237
999.241
999.245
999.249
999.253
999.257
999.26
999.264
999.268
999.271
999.274
999.277
999.28
999.283
999.286
999.289
999.291
999.294
999.296
999.298
999.3
999.302
999.304
999.305
999.307
999.308
999.309
999.31
999.311
999.312
999.312
999.313
999.313
999.313
999.312
999.312
999.311
999.309
999.209
999.21
999.21
999.212
999.214
999.217
999.22
999.223
999.226
999.23
999.234
999.237
999.241
999.245
999.248
999.252
999.256
999.259
999.263
999.266
999.269
999.272
999.275
999.278
999.281
999.284
999.287
999.289
999.291
999.294
999.296
999.298
999.3
999.301
999.303
999.304
999.306
999.307
999.308
999.309
999.31
999.31
999.311
999.311
999.311
999.31
999.31
999.309
999.308
999.307
999.218
999.219
999.219
999.221
999.223
999.225
999.227
999.23
999.233
999.236
999.239
999.242
999.245
999.249
999.252
999.255
999.259
999.262
999.265
999.268
999.271
999.274
999.277
999.279
999.282
999.285
999.287
999.289
999.292
999.294
999.296
999.297
999.299
999.301
999.302
999.304
999.305
999.306
999.307
999.308
999.308
999.309
999.309
999.309
999.309
999.308
999.308
999.307
999.305
999.304
999.228
999.228
999.228
999.229
999.231
999.232
999.234
999.236
999.239
999.241
999.244
999.247
999.25
999.253
999.256
999.259
999.262
999.264
999.267
999.27
999.273
999.276
999.278
999.281
999.283
999.285
999.288
999.29
999.292
999.294
999.296
999.297
999.299
999.3
999.302
999.303
999.304
999.305
999.306
999.306
999.307
999.307
999.307
999.307
999.307
999.306
999.306
999.305
999.303
999.302
999.237
999.237
999.237
999.238
999.239
999.24
999.241
999.243
999.245
999.247
999.249
999.252
999.254
999.257
999.259
999.262
999.265
999.267
999.27
999.272
999.275
999.277
999.28
999.282
999.284
999.286
999.288
999.29
999.292
999.294
999.296
999.297
999.299
999.3
999.301
999.302
999.303
999.304
999.305
999.305
999.306
999.306
999.306
999.306
999.305
999.305
999.304
999.303
999.301
999.299
999.246
999.246
999.246
999.246
999.246
999.247
999.248
999.25
999.251
999.253
999.255
999.257
999.259
999.261
999.263
999.265
999.268
999.27
999.272
999.275
999.277
999.279
999.281
999.283
999.285
999.287
999.289
999.291
999.292
999.294
999.296
999.297
999.298
999.3
999.301
999.302
999.302
999.303
999.304
999.304
999.304
999.304
999.304
999.304
999.304
999.303
999.302
999.301
999.299
999.297
999.255
999.254
999.254
999.254
999.254
999.254
999.255
999.256
999.257
999.258
999.26
999.261
999.263
999.265
999.267
999.269
999.271
999.273
999.275
999.277
999.279
999.281
999.283
999.285
999.286
999.288
999.29
999.291
999.293
999.294
999.296
999.297
999.298
999.299
999.3
999.301
999.302
999.302
999.303
999.303
999.303
999.303
999.303
999.303
999.302
999.301
999.3
999.299
999.298
999.296
999.264
999.262
999.262
999.261
999.261
999.261
999.261
999.262
999.263
999.264
999.265
999.266
999.267
999.269
999.271
999.272
999.274
999.276
999.277
999.279
999.281
999.283
999.284
999.286
999.288
999.289
999.291
999.292
999.293
999.295
999.296
999.297
999.298
999.299
999.3
999.301
999.301
999.302
999.302
999.302
999.302
999.302
999.302
999.302
999.301
999.3
999.299
999.298
999.296
999.294
999.272
999.27
999.269
999.268
999.268
999.268
999.268
999.268
999.268
999.269
999.27
999.271
999.272
999.273
999.274
999.276
999.277
999.278
999.28
999.281
999.283
999.284
999.286
999.287
999.289
999.29
999.291
999.293
999.294
999.295
999.296
999.297
999.298
999.299
999.3
999.3
999.301
999.301
999.301
999.302
999.301
999.301
999.301
999.301
999.3
999.299
999.298
999.297
999.295
999.293
999.28
999.277
999.276
999.275
999.274
999.274
999.273
999.273
999.274
999.274
999.274
999.275
999.276
999.277
999.278
999.279
999.28
999.281
999.282
999.284
999.285
999.286
999.288
999.289
999.29
999.291
999.292
999.294
999.295
999.296
999.296
999.297
999.298
999.299
999.299
999.3
999.3
999.301
999.301
999.301
999.301
999.301
999.3
999.3
999.299
999.298
999.297
999.296
999.294
999.292
999.287
999.284
999.283
999.282
999.281
999.28
999.279
999.279
999.279
999.279
999.279
999.279
999.28
999.281
999.281
999.282
999.283
999.284
999.285
999.286
999.287
999.288
999.289
999.29
999.291
999.292
999.293
999.294
999.295
999.296
999.297
999.298
999.298
999.299
999.299
999.3
999.3
999.3
999.3
999.3
999.3
999.3
999.299
999.299
999.298
999.297
999.296
999.295
999.293
999.292
999.294
999.291
999.29
999.288
999.287
999.285
999.285
999.284
999.284
999.283
999.283
999.284
999.284
999.284
999.285
999.285
999.286
999.287
999.288
999.288
999.289
999.29
999.291
999.292
999.293
999.294
999.294
999.295
999.296
999.297
999.297
999.298
999.298
999.299
999.299
999.3
999.3
999.3
999.3
999.3
999.3
999.299
999.299
999.298
999.298
999.297
999.296
999.294
999.293
999.291
999.3
999.297
999.296
999.294
999.292
999.291
999.29
999.289
999.288
999.288
999.288
999.288
999.288
999.288
999.288
999.288
999.289
999.289
999.29
999.291
999.291
999.292
999.293
999.293
999.294
999.295
999.295
999.296
999.297
999.297
999.298
999.298
999.299
999.299
999.299
999.3
999.3
999.3
999.3
999.3
999.299
999.299
999.298
999.298
999.297
999.296
999.295
999.294
999.293
999.291
999.306
999.303
999.301
999.299
999.297
999.296
999.295
999.294
999.293
999.292
999.292
999.291
999.291
999.291
999.291
999.291
999.292
999.292
999.292
999.293
999.293
999.294
999.294
999.295
999.295
999.296
999.296
999.297
999.297
999.298
999.298
999.299
999.299
999.299
999.299
999.3
999.3
999.3
999.3
999.299
999.299
999.299
999.298
999.298
999.297
999.296
999.295
999.294
999.292
999.291
999.312
999.309
999.307
999.304
999.302
999.301
999.299
999.298
999.297
999.296
999.296
999.295
999.295
999.294
999.294
999.294
999.294
999.294
999.295
999.295
999.295
999.296
999.296
999.296
999.297
999.297
999.298
999.298
999.298
999.299
999.299
999.299
999.299
999.3
999.3
999.3
999.3
999.3
999.299
999.299
999.299
999.298
999.298
999.297
999.297
999.296
999.295
999.294
999.292
999.291
999.317
999.314
999.312
999.309
999.307
999.305
999.304
999.302
999.301
999.3
999.299
999.299
999.298
999.298
999.297
999.297
999.297
999.297
999.297
999.297
999.297
999.297
999.298
999.298
999.298
999.298
999.299
999.299
999.299
999.299
999.3
999.3
999.3
999.3
999.3
999.3
999.3
999.3
999.299
999.299
999.299
999.298
999.298
999.297
999.296
999.296
999.295
999.294
999.293
999.291
999.322
999.319
999.316
999.314
999.312
999.31
999.308
999.306
999.305
999.304
999.303
999.302
999.301
999.301
999.3
999.3
999.299
999.299
999.299
999.299
999.299
999.299
999.299
999.299
999.299
999.3
999.3
999.3
999.3
999.3
999.3
999.3
999.3
999.3
999.3
999.3
999.3
999.3
999.3
999.299
999.299
999.298
999.298
999.297
999.296
999.296
999.295
999.294
999.293
999.292
999.326
999.323
999.321
999.318
999.316
999.314
999.312
999.31
999.309
999.307
999.306
999.305
999.304
999.303
999.303
999.302
999.302
999.302
999.301
999.301
999.301
999.301
999.301
999.301
999.301
999.301
999.301
999.301
999.301
999.301
999.301
999.301
999.301
999.301
999.301
999.3
999.3
999.3
999.3
999.299
999.299
999.298
999.298
999.297
999.297
999.296
999.295
999.294
999.293
999.292
999.331
999.327
999.325
999.322
999.32
999.317
999.315
999.314
999.312
999.311
999.309
999.308
999.307
999.306
999.305
999.305
999.304
999.304
999.303
999.303
999.303
999.302
999.302
999.302
999.302
999.302
999.302
999.302
999.302
999.302
999.301
999.301
999.301
999.301
999.301
999.301
999.3
999.3
999.3
999.299
999.299
999.299
999.298
999.297
999.297
999.296
999.295
999.294
999.293
999.292
999.334
999.331
999.328
999.326
999.323
999.321
999.319
999.317
999.315
999.314
999.312
999.311
999.31
999.309
999.308
999.307
999.306
999.306
999.305
999.305
999.304
999.304
999.304
999.304
999.303
999.303
999.303