/*--------------------------------*- C++ -*----------------------------------*\
  =========                 |
  \\      /  F ield         | OpenFOAM: The Open Source CFD Toolbox
   \\    /   O peration     | Website:  https://openfoam.org
    \\  /    A nd           | Version:  6
     \\/     M anipulation  |
\*---------------------------------------------------------------------------*/
FoamFile
{
    version     2.0;
    format      ascii;
    class       volVectorField;
    location    "1.45";
    object      U;
}
// * * * * * * * * * * * * * * * * * * * * * * * * * * * * * * * * * * * * * //

dimensions      [0 1 -1 0 0 0 0];

internalField   nonuniform List<vector> 
5600
(
(1.04635 0.000262795 8.24791e-17)
(1.05423 0.000695125 -6.49898e-17)
(1.04483 0.00128407 -3.24314e-16)
(1.04019 0.00182299 3.23646e-16)
(1.03799 0.00233165 0)
(1.03507 0.0028902 2.14783e-17)
(1.03106 0.00351082 2.14249e-17)
(1.02621 0.00418403 2.1369e-17)
(1.02057 0.00491315 -2.13107e-17)
(1.01405 0.00571014 2.12501e-17)
(1.00656 0.00658864 2.11875e-17)
(0.998013 0.00756324 2.1123e-17)
(0.988302 0.00865093 0)
(0.977297 0.00987135 0)
(0.964848 0.0112464 2.09195e-17)
(0.95078 0.012798 2.08492e-17)
(0.9349 0.0145425 -1.35058e-15)
(0.917001 0.0164755 1.32519e-15)
(0.896884 0.0185368 0)
(0.874256 0.0205528 2.11179e-17)
(1.04746 0.000755383 -1.60915e-17)
(1.05474 0.00218211 -1.87607e-16)
(1.04512 0.00372939 1.45473e-16)
(1.04061 0.00528006 -2.07167e-17)
(1.03849 0.00684465 0)
(1.03559 0.00850758 6.37924e-16)
(1.0316 0.0102999 -6.76634e-16)
(1.02678 0.0122299 6.33272e-16)
(1.02119 0.0143178 -6.71558e-16)
(1.01474 0.016595 -6.08126e-17)
(1.00735 0.0190984 -2.019e-17)
(0.998921 0.0218697 1.26679e-15)
(0.989365 0.0249571 -4.00374e-17)
(0.978561 0.0284153 -1.31603e-15)
(0.966368 0.0323036 1.25086e-15)
(0.95263 0.0366789 -1.32452e-15)
(0.93717 0.0415781 -1.96829e-17)
(0.919799 0.0469791 -2.54762e-15)
(0.900327 0.0527199 2.45837e-15)
(0.878411 0.0583872 -2.56491e-15)
(1.04883 0.00103739 6.45226e-17)
(1.05595 0.00355042 -8.32809e-17)
(1.04603 0.00618341 -8.30198e-17)
(1.04156 0.00875489 -2.89636e-16)
(1.03954 0.0113625 3.29907e-16)
(1.03672 0.0141302 -7.39729e-16)
(1.03281 0.0170995 -8.18912e-17)
(1.02813 0.0202915 -2.7308e-21)
(1.0227 0.0237447 7.71912e-16)
(1.01646 0.0275111 -4.0463e-17)
(1.00933 0.0316509 -1.2895e-15)
(1.00123 0.0362322 2.56815e-15)
(0.99208 0.0413334 -1.31853e-15)
(0.981779 0.0470425 -1.15368e-15)
(0.97021 0.0534531 1.26741e-15)
(0.957238 0.0606532 -3.94296e-17)
(0.942711 0.0686981 1.17757e-16)
(0.926453 0.0775493 3.9075e-17)
(0.908273 0.0869534 2.52835e-15)
(0.887846 0.0962486 -2.45091e-15)
(1.05055 0.00139875 -6.46782e-17)
(1.05767 0.00496022 8.32735e-17)
(1.04741 0.00859585 4.11596e-22)
(1.04298 0.0121384 -8.2898e-17)
(1.04111 0.015749 0)
(1.03844 0.019576 -4.94907e-16)
(1.03472 0.0236696 6.58003e-16)
(1.03027 0.0280629 -6.56017e-16)
(1.02513 0.0328105 1.88014e-15)
(1.01926 0.0379827 -1.22221e-15)
(1.01257 0.0436597 -1.29935e-15)
(1.00502 0.0499326 1.29489e-15)
(0.996542 0.0569053 1.37098e-15)
(0.987059 0.0646938 -1.44637e-15)
(0.976484 0.073421 1.28093e-15)
(0.964717 0.0832017 7.977e-17)
(0.951636 0.0941087 -1.35065e-15)
(0.937094 0.106097 0)
(0.920916 0.118847 0)
(0.902905 0.131483 -1.57662e-21)
(1.05258 0.00176742 3.8871e-22)
(1.0598 0.00631566 1.66753e-16)
(1.04916 0.0108779 2.50041e-16)
(1.04479 0.0153289 -2.49914e-16)
(1.04313 0.0198741 8.32536e-17)
(1.04068 0.024678 4.99088e-16)
(1.03721 0.0297984 -1.24629e-15)
(1.03308 0.0352789 -2.37093e-21)
(1.02834 0.0411869 1.24289e-15)
(1.02295 0.0476068 -7.44568e-16)
(1.01686 0.0546345 0)
(1.01003 0.0623786 0)
(1.00242 0.0709624 0)
(0.993997 0.0805228 -1.31381e-15)
(0.984694 0.0912041 -1.07684e-20)
(0.974455 0.10314 -1.1633e-20)
(0.963198 0.116417 1.30479e-15)
(0.95081 0.130982 -1.30154e-15)
(0.937154 0.146466 1.29815e-15)
(0.92222 0.161796 -1.64506e-16)
(1.05493 0.00218317 1.95061e-16)
(1.06228 0.00757703 -2.51161e-16)
(1.05121 0.0129554 -2.52006e-16)
(1.04689 0.0182332 -8.42651e-17)
(1.04546 0.0236159 -3.38036e-16)
(1.04326 0.0292803 6.7786e-16)
(1.04009 0.0352943 0)
(1.03633 0.0417082 8.51387e-17)
(1.03205 0.0485977 -5.97266e-16)
(1.02722 0.0560574 8.54947e-16)
(1.0218 0.0641942 0)
(1.01579 0.0731289 1.45852e-15)
(1.00916 0.0829978 7.90362e-21)
(1.0019 0.0939522 -1.20449e-15)
(0.994006 0.106151 0)
(0.985442 0.119741 -8.62095e-17)
(0.976169 0.134814 0)
(0.966112 0.151312 0)
(0.955164 0.168818 0)
(0.943489 0.186085 8.76974e-17)
(1.05784 0.00254457 -6.49768e-17)
(1.06504 0.00878937 -2.47975e-16)
(1.05345 0.0150292 2.47096e-16)
(1.04923 0.0210892 8.20424e-17)
(1.04806 0.0272516 -7.35107e-16)
(1.04614 0.0337392 6.50375e-16)
(1.0433 0.0406157 1.29436e-15)
(1.03996 0.047926 -1.36819e-15)
(1.03622 0.0557514 -8.00491e-17)
(1.03203 0.0641953 -7.96025e-17)
(1.0274 0.0733731 0)
(1.02234 0.0834137 -2.67458e-15)
(1.01686 0.0944621 2.50158e-15)
(1.01099 0.106679 -1.19541e-21)
(1.00475 0.120231 2.39192e-15)
(0.998165 0.135274 -2.37563e-15)
(0.99125 0.1519 -7.60966e-17)
(0.983965 0.170038 7.55513e-17)
(0.976233 0.189215 0)
(0.968296 0.207986 -7.57402e-17)
(1.06117 0.00293081 1.3023e-16)
(1.06821 0.0100592 -1.65491e-16)
(1.05588 0.0170517 6.61684e-16)
(1.05174 0.0238341 -6.61005e-16)
(1.05089 0.0307521 -7.4241e-16)
(1.04928 0.0380307 7.40901e-16)
(1.04682 0.0457259 -1.31397e-15)
(1.04397 0.0538838 1.31027e-15)
(1.04084 0.062591 8.16307e-17)
(1.03741 0.0719568 -1.30141e-15)
(1.03369 0.082101 3.88871e-15)
(1.02972 0.0931554 8.06708e-17)
(1.02556 0.105267 -5.13793e-15)
(1.02126 0.118596 2.39609e-15)
(1.01692 0.133309 1.37744e-21)
(1.01262 0.149554 -7.89651e-17)
(1.00843 0.167411 1.71187e-21)
(1.00438 0.18678 -2.57261e-15)
(1.00039 0.207121 -1.55961e-21)
(0.996683 0.22681 7.84583e-17)
(1.0649 0.00381296 0)
(1.07135 0.0115511 3.31755e-16)
(1.05814 0.018872 -1.04079e-15)
(1.05419 0.0262774 -4.49005e-21)
(1.05371 0.0338966 1.42411e-15)
(1.05242 0.0418485 6.71755e-16)
(1.05035 0.0502155 4.20664e-17)
(1.04802 0.0590646 -1.348e-15)
(1.04551 0.0684861 4.21641e-17)
(1.04282 0.078589 0)
(1.03999 0.0894932 0)
(1.03707 0.101329 4.215e-17)
(1.03414 0.114238 0)
(1.03132 0.128373 1.2607e-16)
(1.02872 0.14389 8.38451e-17)
(1.02648 0.16092 1.25387e-16)
(1.02475 0.179528 2.74845e-15)
(1.02358 0.199594 4.14599e-17)
(1.02292 0.220525 -7.92714e-21)
(1.02309 0.240522 -2.68215e-15)
(1.06909 0.00571096 0)
(1.07351 0.0134085 0)
(1.05973 0.0204284 4.02743e-17)
(1.0565 0.0284164 -6.45526e-16)
(1.05648 0.0367475 6.46405e-16)
(1.05553 0.0452973 0)
(1.05391 0.0542359 -4.0461e-17)
(1.05214 0.0636795 0)
(1.0503 0.0737157 -4.04514e-17)
(1.04839 0.0844466 -1.29341e-15)
(1.04645 0.095988 1.29177e-15)
(1.04457 0.108465 -4.02976e-17)
(1.04285 0.122009 2.57326e-15)
(1.04141 0.136759 -2.60631e-15)
(1.04043 0.152851 -2.55786e-15)
(1.04009 0.170397 2.50838e-15)
(1.04059 0.189451 2.53718e-15)
(1.04204 0.209933 -2.56431e-15)
(1.04439 0.231324 2.51125e-15)
(1.04755 0.251294 -3.87652e-20)
(0.846204 0.0221111 6.39001e-16)
(0.808182 0.0243213 0)
(0.762694 0.0268938 -7.17899e-16)
(0.707564 0.029841 0)
(0.640036 0.0331402 -7.70517e-16)
(0.556593 0.0366216 -1.70072e-20)
(0.453121 0.0397641 -8.07333e-16)
(0.325932 0.0413211 1.62337e-15)
(0.180315 0.0379441 -3.99898e-16)
(0.0377198 0.0221858 -5.36708e-16)
(0.851248 0.0634883 3.01339e-15)
(0.814142 0.0704264 -1.29396e-15)
(0.769531 0.0783987 2.01263e-15)
(0.715402 0.0875258 1.38745e-15)
(0.648992 0.0977986 0)
(0.56671 0.108711 -7.30452e-16)
(0.464273 0.118612 -1.47943e-15)
(0.337552 0.123395 -2.21471e-15)
(0.190822 0.112951 3.606e-16)
(0.0438945 0.0662759 -9.64102e-16)
(0.862507 0.104825 -3.61814e-15)
(0.827162 0.116364 3.87648e-15)
(0.784323 0.129599 -4.02193e-15)
(0.732218 0.144762 -1.38716e-15)
(0.66805 0.161877 -7.14562e-16)
(0.588073 0.180123 7.31338e-16)
(0.487649 0.196736 7.41142e-16)
(0.361791 0.204749 1.85069e-15)
(0.212812 0.187608 3.61894e-16)
(0.0568994 0.111301 2.42022e-15)
(0.880321 0.143335 -1.22143e-15)
(0.847314 0.159256 0)
(0.806899 0.177509 2.6976e-15)
(0.757622 0.198429 -1.39218e-15)
(0.696604 0.222093 -2.14581e-15)
(0.619905 0.247417 2.18981e-15)
(0.522441 0.270636 -1.4749e-15)
(0.398105 0.282213 0)
(0.246415 0.25983 0)
(0.0779429 0.156751 -2.5542e-15)
(0.90294 0.176339 1.25158e-15)
(0.872578 0.196123 0)
(0.835004 0.218927 0)
(0.789093 0.245119 -1.40335e-15)
(0.731877 0.274829 -1.43429e-15)
(0.659246 0.306746 0)
(0.565673 0.336211 1.46306e-15)
(0.443859 0.351392 0)
(0.289902 0.32498 0)
(0.106975 0.198536 1.26383e-15)
(0.927573 0.202627 1.32022e-15)
(0.899985 0.225756 1.38628e-15)
(0.865471 0.252613 0)
(0.823249 0.283523 5.77924e-15)
(0.770315 0.318665 1.46438e-15)
(0.702428 0.356502 1.47348e-15)
(0.613641 0.391477 2.93695e-15)
(0.495405 0.409513 0)
(0.339878 0.378682 0)
(0.141332 0.230354 -3.11911e-16)
(0.956307 0.226058 -2.29417e-15)
(0.931817 0.252315 0)
(0.900681 0.282941 2.53356e-15)
(0.862633 0.318166 -6.54361e-15)
(0.814604 0.358167 1.34614e-15)
(0.752158 0.401083 2.75163e-15)
(0.668746 0.440296 -2.11093e-19)
(0.554132 0.459286 0)
(0.395515 0.421534 -2.73072e-15)
(0.177127 0.251068 2.7789e-15)
(0.989 0.246369 2.37461e-15)
(0.967565 0.275712 0)
(0.939981 0.309693 0)
(0.906412 0.348579 4.48763e-20)
(0.863569 0.392539 2.73351e-15)
(0.80671 0.439263 -1.84648e-19)
(0.728404 0.480974 -2.10191e-19)
(0.616129 0.498833 2.76625e-15)
(0.451342 0.452363 2.69487e-15)
(0.20771 0.261217 -2.34972e-19)
(1.01961 0.261587 0)
(1.0008 0.29347 -2.64907e-15)
(0.976773 0.329952 0)
(0.94773 0.371506 0)
(0.910099 0.418326 -2.7749e-15)
(0.858914 0.467686 -1.74411e-19)
(0.785886 0.510865 1.38429e-15)
(0.676178 0.527414 -3.40221e-15)
(0.505616 0.474407 -6.59041e-16)
(0.236941 0.268924 -2.08473e-15)
(1.04624 0.273901 -2.73864e-20)
(1.02979 0.306909 6.26678e-20)
(1.00981 0.345145 0)
(0.985692 0.388718 0)
(0.953825 0.437699 -1.32602e-15)
(0.909262 0.489058 -1.32788e-15)
(0.843099 0.53349 -1.31557e-15)
(0.738535 0.549769 -1.2848e-15)
(0.566217 0.494332 6.1523e-16)
(0.277298 0.283159 -5.46974e-16)
(1.07464 0.295387 2.35625e-15)
(1.05776 0.327534 0)
(1.0408 0.365564 0)
(1.02037 0.408783 0)
(0.9929 0.456487 0)
(0.95322 0.505055 0)
(0.89195 0.544946 0)
(0.791566 0.555754 6.88446e-16)
(0.62126 0.497449 -6.59843e-16)
(0.324943 0.295516 0)
(1.10733 0.313036 -2.36309e-15)
(1.09379 0.34614 0)
(1.07995 0.384049 -2.5634e-15)
(1.06279 0.426377 0)
(1.03869 0.471301 -5.26067e-15)
(1.00184 0.514097 2.63841e-15)
(0.942022 0.544313 0)
(0.841239 0.541761 -1.28217e-15)
(0.669276 0.47167 -6.1833e-16)
(0.366305 0.275639 -3.28816e-15)
(1.14227 0.325659 2.39093e-15)
(1.13287 0.358329 -2.58596e-15)
(1.12219 0.395041 2.67769e-15)
(1.1078 0.43517 1.38094e-15)
(1.0859 0.475808 1.41631e-15)
(1.04968 0.511044 2.87769e-15)
(0.987303 0.529364 0)
(0.878693 0.510299 -2.84415e-15)
(0.690498 0.422305 2.39387e-15)
(0.362176 0.219662 4.57602e-16)
(1.17702 0.332793 2.41079e-15)
(1.17127 0.364475 -2.58903e-15)
(1.16305 0.399339 5.32453e-15)
(1.15022 0.43646 -5.45012e-15)
(1.12861 0.472269 0)
(1.09047 0.500187 -1.92753e-19)
(1.02251 0.508446 2.76884e-15)
(0.90306 0.477535 3.3802e-15)
(0.697053 0.379903 -3.22459e-16)
(0.346171 0.180933 2.13312e-15)
(1.21043 0.335283 -2.45358e-15)
(1.20777 0.365445 2.61993e-15)
(1.20174 0.397838 -6.71542e-15)
(1.19003 0.431163 4.11515e-15)
(1.16793 0.461413 0)
(1.12677 0.481659 -1.86432e-19)
(1.05208 0.480405 -2.09696e-15)
(0.921015 0.439941 -6.89087e-16)
(0.698035 0.33756 0)
(0.329967 0.14897 0)
(1.24276 0.33392 -1.20444e-15)
(1.24244 0.361838 2.56817e-15)
(1.23794 0.390941 -1.31718e-15)
(1.22647 0.419561 2.6912e-15)
(1.20268 0.443459 -1.36897e-15)
(1.15711 0.455748 -2.07821e-15)
(1.07452 0.445809 6.96143e-16)
(0.931734 0.398551 0)
(0.694397 0.296531 0)
(0.316124 0.124477 3.09966e-16)
(1.27389 0.328137 2.18965e-20)
(1.27498 0.353077 1.2888e-15)
(1.27094 0.378142 1.32091e-15)
(1.2584 0.401347 1.35011e-15)
(1.23138 0.418452 -5.82422e-20)
(1.17992 0.422989 -3.48549e-15)
(1.08863 0.405696 7.02269e-16)
(0.935024 0.354533 -1.40321e-15)
(0.687356 0.257104 1.385e-15)
(0.305314 0.105416 3.15406e-16)
(1.30238 0.317382 -1.22381e-15)
(1.3039 0.338907 -9.10445e-21)
(1.29914 0.359617 -1.32887e-15)
(1.28424 0.377286 6.7926e-16)
(1.25281 0.387839 -2.07628e-15)
(1.19475 0.385435 2.10584e-15)
(1.09517 0.362311 -2.83016e-15)
(0.93329 0.309419 1.41413e-15)
(0.680922 0.21899 -6.97782e-16)
(0.301382 0.0893998 0)
(1.32736 0.301607 1.22661e-15)
(1.3284 0.31965 -1.30001e-15)
(1.32192 0.336067 0)
(1.3038 0.348468 0)
(1.26748 0.353007 1.38995e-15)
(1.20314 0.344475 7.04847e-16)
(1.09699 0.31647 -7.09921e-16)
(0.930709 0.262561 2.12412e-15)
(0.680481 0.179473 -6.95759e-16)
(0.310739 0.0720422 1.25628e-15)
(1.34843 0.281607 0)
(1.34893 0.296073 0)
(1.34077 0.308045 0)
(1.31967 0.31501 0)
(1.27906 0.313353 -6.95733e-16)
(1.2096 0.298458 0)
(1.09877 0.265163 0)
(0.93095 0.209245 -3.52531e-16)
(0.687179 0.131927 -1.16332e-20)
(0.334722 0.0434061 -9.27463e-16)
(1.09079 0.270234 5.0008e-18)
(1.11982 0.286871 -5.01606e-18)
(1.15085 0.298675 1.00647e-17)
(1.18184 0.305743 -1.02313e-17)
(1.21201 0.308907 0)
(1.24183 0.308979 2.66427e-15)
(1.27114 0.305382 1.35035e-15)
(1.29841 0.297386 1.06384e-17)
(1.32274 0.284747 -5.32619e-18)
(1.34322 0.268232 -5.31026e-18)
(1.10107 0.257545 2.45257e-15)
(1.12793 0.271564 -2.44116e-15)
(1.15641 0.28151 -9.58973e-18)
(1.18475 0.287539 -2.49298e-15)
(1.21247 0.290338 0)
(1.24014 0.290606 5.95029e-22)
(1.2677 0.287836 0)
(1.29369 0.281292 -1.01636e-17)
(1.31727 0.270647 1.52701e-17)
(1.33709 0.256617 -5.07591e-18)
(1.11136 0.246258 4.76794e-18)
(1.13567 0.25809 -4.77197e-18)
(1.16155 0.266301 -9.62296e-18)
(1.18736 0.27122 2.51033e-15)
(1.21271 0.273475 0)
(1.23819 0.273685 -6.97162e-22)
(1.26383 0.271414 0)
(1.28834 0.265948 0)
(1.31094 0.256904 5.09741e-18)
(1.33004 0.244905 -5.08353e-18)
(1.12049 0.235634 -2.46224e-15)
(1.1427 0.245523 2.4728e-15)
(1.16625 0.252236 -3.30781e-22)
(1.18973 0.256161 -2.51794e-15)
(1.21287 0.257878 0)
(1.23623 0.257936 -5.09485e-15)
(1.25991 0.25598 1.28395e-15)
(1.28281 0.251344 2.92261e-22)
(1.30428 0.243616 -1.29664e-15)
(1.32255 0.233304 0)
(1.12826 0.225389 2.47919e-15)
(1.14873 0.233698 -2.48146e-15)
(1.17027 0.239182 -2.48081e-15)
(1.1917 0.24227 2.51576e-15)
(1.21284 0.243503 2.0185e-17)
(1.23424 0.243374 -1.99374e-17)
(1.25607 0.241605 -2.60198e-15)
(1.27736 0.237592 1.02114e-17)
(1.29761 0.230922 5.10343e-18)
(1.31498 0.221998 1.30015e-15)
(1.13476 0.215433 -2.47689e-15)
(1.15373 0.222491 2.49018e-15)
(1.17352 0.226998 -1.9433e-17)
(1.19317 0.229406 9.85701e-18)
(1.21254 0.230235 -2.58912e-15)
(1.23219 0.229929 2.55652e-15)
(1.25231 0.22827 -2.76579e-21)
(1.27208 0.224723 1.31918e-15)
(1.29108 0.218896 2.61075e-15)
(1.30753 0.211108 -1.30713e-15)
(1.14013 0.205755 -2.48421e-15)
(1.15777 0.211808 -4.87115e-18)
(1.17604 0.215542 1.4451e-20)
(1.19412 0.217419 2.55072e-15)
(1.21195 0.217928 2.57424e-15)
(1.23005 0.217477 0)
(1.24864 0.215895 2.59775e-15)
(1.26699 0.212708 -1.32103e-15)
(1.28478 0.207555 -2.61423e-15)
(1.30031 0.2007 -1.30899e-15)
(1.14452 0.196367 2.50132e-15)
(1.16095 0.201597 2.50753e-15)
(1.17787 0.20472 -9.77927e-18)
(1.19458 0.206185 -5.07702e-15)
(1.21106 0.206456 0)
(1.2278 0.205901 0)
(1.24502 0.204384 -1.30039e-15)
(1.26209 0.201489 1.31258e-15)
(1.27874 0.196885 -6.06921e-21)
(1.29338 0.190801 1.31079e-15)
(1.14806 0.187283 -2.49884e-15)
(1.16339 0.191832 -2.50637e-15)
(1.1791 0.194466 -1.96396e-17)
(1.19461 0.195617 9.95309e-18)
(1.20989 0.195716 0)
(1.22542 0.195096 0)
(1.24143 0.193646 0)
(1.25735 0.190997 -1.32458e-15)
(1.27295 0.186852 1.32586e-15)
(1.28674 0.181412 0)
(1.15085 0.178514 2.51592e-15)
(1.16518 0.182494 4.92136e-18)
(1.17982 0.184737 2.51402e-15)
(1.19424 0.185647 6.84498e-21)
(1.20847 0.185626 0)
(1.22295 0.184975 0)
(1.23788 0.183598 0)
(1.25276 0.181166 1.31599e-15)
(1.2674 0.177412 -1.31718e-15)
(1.28041 0.172519 1.31374e-15)
(1.15301 0.170067 4.91834e-18)
(1.16643 0.173569 4.93793e-18)
(1.18009 0.175495 -1.99337e-22)
(1.19355 0.176223 2.55084e-15)
(1.20684 0.176123 0)
(1.22037 0.175465 0)
(1.23435 0.174167 1.01957e-17)
(1.2483 0.171932 -2.64553e-15)
(1.26207 0.168518 -5.15563e-18)
(1.27435 0.164095 -1.30987e-15)
(1.15463 0.161942 2.53027e-15)
(1.1672 0.165041 -4.9545e-18)
(1.17998 0.16671 0)
(1.19259 0.1673 0)
(1.20503 0.16715 0)
(1.21772 0.166505 0)
(1.23085 0.165291 0)
(1.24396 0.163237 2.6281e-15)
(1.25693 0.160124 1.33054e-15)
(1.26856 0.156111 0)
(1.15577 0.154136 -2.52745e-15)
(1.16759 0.156895 -4.97068e-18)
(1.17957 0.158355 -2.55882e-15)
(1.19139 0.158841 -2.54512e-15)
(1.20309 0.158664 -2.64651e-15)
(1.21502 0.158044 0)
(1.22737 0.156917 0)
(1.23974 0.15503 1.03207e-17)
(1.25199 0.152188 -1.54887e-17)
(1.26301 0.148537 5.14667e-18)
(1.15653 0.146645 2.54429e-15)
(1.16764 0.149115 -4.98663e-18)
(1.1789 0.150405 2.547e-15)
(1.19002 0.150812 2.59245e-15)
(1.20103 0.150625 5.28252e-15)
(1.21229 0.15004 -1.31726e-15)
(1.22395 0.148998 0)
(1.23563 0.147269 -1.32208e-15)
(1.24722 0.144671 0)
(1.25769 0.141342 0)
(1.15694 0.13946 4.96147e-18)
(1.16742 0.141685 5.00218e-18)
(1.17802 0.142835 -1.00195e-17)
(1.18851 0.143186 -2.58931e-15)
(1.19891 0.142999 -2.63588e-15)
(1.20954 0.142454 1.29932e-15)
(1.22057 0.141497 1.31144e-15)
(1.23164 0.139914 0)
(1.24263 0.137538 -5.17386e-18)
(1.25258 0.134498 5.15652e-18)
(1.15707 0.132572 -2.54792e-15)
(1.16697 0.134588 -5.01778e-18)
(1.17698 0.135624 -1.00499e-17)
(1.18689 0.135933 1.01453e-17)
(1.19673 0.135755 0)
(1.2068 0.135254 -1.30162e-15)
(1.21726 0.134379 1.02589e-17)
(1.22776 0.132933 -1.03464e-17)
(1.2382 0.130759 -5.17916e-18)
(1.24769 0.12798 5.16142e-18)
(1.15698 0.125971 0)
(1.16634 0.127809 -1.00657e-17)
(1.17581 0.128751 1.00801e-17)
(1.18519 0.12903 5.20559e-15)
(1.19452 0.128868 -2.06666e-17)
(1.20409 0.128411 1.32427e-15)
(1.21401 0.127615 -1.3249e-15)
(1.224 0.126294 -6.52366e-16)
(1.23394 0.124306 -6.68773e-16)
(1.243 0.121764 5.1663e-18)
(1.15668 0.119645 5.01158e-18)
(1.16556 0.12133 -2.58949e-15)
(1.17453 0.122195 2.58803e-15)
(1.18344 0.122454 -2.60933e-15)
(1.19231 0.122311 0)
(1.20141 0.121898 -1.30616e-15)
(1.21085 0.121177 0)
(1.22036 0.119973 6.63278e-16)
(1.22984 0.118155 6.58974e-16)
(1.2385 0.115828 6.67076e-16)
(1.15623 0.113583 5.02392e-18)
(1.16467 0.115136 2.59696e-15)
(1.17319 0.115938 -2.60554e-15)
(1.18166 0.116184 -2.59526e-15)
(1.19011 0.116062 1.30643e-15)
(1.19877 0.115693 1.30839e-15)
(1.20778 0.115041 -1.02952e-17)
(1.21685 0.113946 -6.53464e-16)
(1.2259 0.112284 -5.19276e-18)
(1.23419 0.110153 -6.57346e-16)
(1.15566 0.107773 2.58345e-15)
(1.16368 0.109213 -5.07652e-18)
(1.17179 0.109961 -2.60259e-15)
(1.17986 0.1102 2.62192e-15)
(1.18792 0.1101 -2.65865e-15)
(1.1962 0.109773 0)
(1.2048 0.109187 -1.03075e-17)
(1.21346 0.108192 1.33917e-15)
(1.22211 0.106673 5.19678e-18)
(1.23008 0.104721 -5.18078e-18)
(1.15498 0.102204 -2.57938e-15)
(1.16263 0.103544 2.60116e-15)
(1.17036 0.104248 2.60961e-15)
(1.17807 0.104483 0)
(1.18578 0.104406 1.33142e-15)
(1.19369 0.104119 0)
(1.20191 0.103595 -1.03197e-17)
(1.2102 0.102691 -6.54557e-16)
(1.21849 0.101304 -6.65704e-16)
(1.22614 0.0995167 0)
(1.15423 0.0968626 5.05909e-18)
(1.16154 0.0981154 -2.61827e-15)
(1.16892 0.0987827 0)
(1.17629 0.0990161 -2.05769e-17)
(1.18368 0.098962 -1.3126e-15)
(1.19126 0.0987137 0)
(1.19913 0.0982455 -1.03318e-17)
(1.20708 0.0974271 1.03985e-17)
(1.21502 0.0961601 6.71417e-16)
(1.22238 0.0945238 6.59161e-16)
(1.15342 0.0917384 5.07017e-18)
(1.16041 0.0929141 -2.625e-15)
(1.16748 0.0935494 -2.62307e-15)
(1.17454 0.0937837 0)
(1.18163 0.0937517 1.35626e-15)
(1.1889 0.093539 -2.05787e-17)
(1.19646 0.0931231 1.33435e-15)
(1.20408 0.0923827 -1.04071e-17)
(1.2117 0.0912266 0)
(1.2188 0.0897288 -6.6495e-16)
(1.15258 0.0868197 -5.08091e-18)
(1.15927 0.0879267 2.63153e-15)
(1.16605 0.0885342 2.62952e-15)
(1.17283 0.0887704 2.06647e-17)
(1.17964 0.0887594 -2.0895e-17)
(1.18663 0.0885799 -1.31911e-15)
(1.19389 0.0882121 -1.99865e-15)
(1.20122 0.0875434 6.7701e-16)
(1.20854 0.0864892 6.62012e-16)
(1.21539 0.0851186 5.19959e-18)
(1.15171 0.0820955 5.0913e-18)
(1.15813 0.0831406 -5.14205e-18)
(1.16464 0.0837235 0)
(1.17116 0.083962 0)
(1.17772 0.0839707 1.33909e-15)
(1.18445 0.0838218 1.32115e-15)
(1.19143 0.0834982 6.53149e-16)
(1.19848 0.0828953 -6.56712e-16)
(1.20553 0.0819348 -6.72941e-16)
(1.21214 0.0806811 5.20419e-18)
(1.15082 0.0775551 -1.30084e-15)
(1.157 0.0785438 -5.15399e-18)
(1.16326 0.0791044 0)
(1.16954 0.0793453 0)
(1.17586 0.0793721 -1.36177e-15)
(1.18235 0.0792512 1.34383e-15)
(1.18908 0.078968 -1.0379e-17)
(1.19587 0.0784254 1.04325e-17)
(1.20267 0.077551 -5.22046e-18)
(1.20907 0.0764049 5.20873e-18)
(1.14994 0.0731881 1.31353e-15)
(1.15589 0.0741247 -5.16551e-18)
(1.16192 0.0746647 1.3238e-15)
(1.16798 0.0749077 -2.07855e-17)
(1.17408 0.0749509 1.36346e-15)
(1.18035 0.0748556 -2.43315e-22)
(1.18684 0.0746092 6.64996e-16)
(1.19339 0.0741218 0)
(1.19996 0.0733266 -6.7394e-16)
(1.20615 0.0722795 5.21323e-18)
(1.14906 0.0689843 5.12029e-18)
(1.1548 0.0698725 -1.33038e-15)
(1.16062 0.0703931 -1.3266e-15)
(1.16648 0.0706375 -1.33266e-15)
(1.17238 0.0706952 -1.34407e-15)
(1.17844 0.0706229 -2.4667e-22)
(1.18471 0.07041 -1.04018e-17)
(1.19104 0.0699731 1.0449e-17)
(1.19738 0.0692506 -5.22855e-18)
(1.20339 0.0682948 5.21767e-18)
(1.14819 0.0649339 5.1292e-18)
(1.15374 0.0657767 2.64032e-15)
(1.15937 0.0662785 1.03851e-17)
(1.16504 0.0665233 1.33495e-15)
(1.17075 0.0665939 1.32456e-15)
(1.17662 0.0665422 -1.30818e-15)
(1.18269 0.0663594 -6.76853e-16)
(1.18882 0.0659688 -6.58802e-16)
(1.19495 0.0653132 6.69688e-16)
(1.20078 0.0644415 0)
(1.14735 0.0610277 5.13772e-18)
(1.15272 0.0618272 -1.33576e-15)
(1.15816 0.0623105 -1.33187e-15)
(1.16366 0.0625549 2.08928e-17)
(1.16921 0.0626363 -1.36807e-15)
(1.1749 0.0626029 0)
(1.18078 0.0624474 1.04241e-17)
(1.18671 0.0620988 -1.04655e-17)
(1.19266 0.0615047 5.23567e-18)
(1.19833 0.0607105 -5.2264e-18)
(1.14653 0.0572565 5.14585e-18)
(1.15173 0.0580145 -5.2073e-18)
(1.15701 0.0584793 1.17294e-21)
(1.16235 0.0587221 0)
(1.16774 0.0588126 -2.10682e-17)
(1.17327 0.0587952 2.08219e-17)
(1.17897 0.058664 -1.0435e-17)
(1.18473 0.0583537 6.80762e-16)
(1.19049 0.0578161 -5.23938e-18)
(1.19602 0.0570935 5.23068e-18)
(1.14575 0.0536116 0)
(1.15079 0.0543293 0)
(1.15592 0.0547756 1.33669e-15)
(1.16111 0.0550154 -1.36217e-15)
(1.16636 0.0551132 1.37074e-15)
(1.17173 0.0551097 0)
(1.17727 0.0550002 1.04457e-17)
(1.18287 0.0547248 -6.81277e-16)
(1.18847 0.0542392 -5.24305e-18)
(1.19385 0.0535825 5.2349e-18)
(1.145 0.0500846 1.32636e-15)
(1.1499 0.050763 -5.22551e-18)
(1.15489 0.0511903 1.33892e-15)
(1.15994 0.051426 1.34309e-15)
(1.16505 0.0515293 -2.70169e-15)
(1.17029 0.0515375 6.6804e-16)
(1.17568 0.0514474 -6.79662e-16)
(1.18112 0.0512036 1.01743e-15)
(1.18657 0.0507657 -3.41035e-16)
(1.19182 0.05017 5.23906e-18)
(1.14428 0.0466673 -1.3178e-15)
(1.14905 0.047307 -5.23393e-18)
(1.15391 0.0477149 -9.63783e-22)
(1.15884 0.0479452 1.34487e-15)
(1.16383 0.0480523 1.37309e-15)
(1.16894 0.0480705 -1.35866e-15)
(1.17419 0.0479973 2.1694e-24)
(1.17949 0.0477822 -3.35894e-16)
(1.18479 0.0473881 -5.25037e-18)
(1.18992 0.0468489 5.24316e-18)
(1.1436 0.0433518 1.32981e-15)
(1.14825 0.0439535 -5.24188e-18)
(1.153 0.0443413 -1.34304e-15)
(1.15781 0.044565 -1.34654e-15)
(1.16268 0.0446742 -6.76499e-16)
(1.16767 0.0447005 1.13454e-22)
(1.1728 0.0446421 7.73941e-24)
(1.17796 0.044453 0)
(1.18314 0.0440993 6.67235e-16)
(1.18816 0.0436122 5.2472e-18)
(1.14297 0.0401308 -1.32101e-15)
(1.14751 0.0406946 -1.5748e-17)
(1.15214 0.0410618 1.05072e-17)
(1.15685 0.0412776 1.36917e-15)
(1.16162 0.0413873 -2.11554e-17)
(1.1665 0.04142 1.34097e-15)
(1.17151 0.0413745 6.81652e-16)
(1.17655 0.0412089 -3.4689e-16)
(1.18161 0.0408923 -3.36468e-16)
(1.18653 0.0404535 0)
(1.14238 0.0369968 5.18608e-18)
(1.14682 0.0375229 -5.25635e-18)
(1.15135 0.0378688 0)
(1.15596 0.0380756 -1.34956e-15)
(1.16063 0.0381844 6.77413e-16)
(1.16542 0.0382219 -6.71251e-16)
(1.17031 0.0381875 1.04968e-17)
(1.17525 0.038043 3.26095e-16)
(1.1802 0.0377605 3.41949e-16)
(1.18502 0.0373665 -3.4158e-16)
(1.14183 0.033943 5.19132e-18)
(1.14617 0.0344314 -5.26286e-18)
(1.15062 0.0347553 -6.7415e-16)
(1.15514 0.0349519 -2.11079e-17)
(1.15973 0.0350584 -6.56627e-16)
(1.16442 0.0350993 0)
(1.16922 0.0350742 -1.05064e-17)
(1.17405 0.0349488 1.05265e-17)
(1.1789 0.0346978 -6.73812e-16)
(1.18363 0.0343455 3.36571e-16)
(1.14132 0.0309625 -5.19614e-18)
(1.14559 0.0314132 -6.69147e-16)
(1.14995 0.0317144 6.74905e-16)
(1.15439 0.0318997 0)
(1.1589 0.0320027 1.35633e-15)
(1.16351 0.0320455 0)
(1.16821 0.0320283 3.36509e-16)
(1.17296 0.0319201 0)
(1.17771 0.0316981 3.42388e-16)
(1.18237 0.0313845 -5.26271e-18)
(1.14086 0.028049 5.20052e-18)
(1.14505 0.0284618 1.35552e-15)
(1.14934 0.0287397 6.65042e-16)
(1.15371 0.0289126 -6.76641e-16)
(1.15815 0.0290107 -6.99679e-16)
(1.16268 0.0290543 2.10442e-17)
(1.1673 0.0290436 -3.4733e-16)
(1.17196 0.0289508 -3.26761e-16)
(1.17663 0.0287557 5.27079e-18)
(1.18122 0.0284782 -5.26642e-18)
(1.14045 0.025196 5.20448e-18)
(1.14457 0.0255707 -6.81051e-16)
(1.14879 0.0258246 -6.76229e-16)
(1.15309 0.0259842 2.03865e-22)
(1.15747 0.0260764 0)
(1.16193 0.0261196 -3.37041e-16)
(1.16648 0.0261141 -1.05342e-17)
(1.17107 0.0260352 3.48071e-16)
(1.17566 0.025865 0)
(1.18018 0.0256213 0)
(1.14008 0.0223976 5.208e-18)
(1.14414 0.022734 -5.28403e-18)
(1.1483 0.0229631 6.76796e-16)
(1.15255 0.0231084 6.98784e-16)
(1.15687 0.0231938 6.57761e-16)
(1.16127 0.0232356 3.37364e-16)
(1.16575 0.0232341 -3.47921e-16)
(1.17027 0.0231678 -1.58316e-16)
(1.17479 0.0230206 -5.27723e-18)
(1.17926 0.0228086 5.27364e-18)
(1.13976 0.0196477 5.21108e-18)
(1.14376 0.0199455 -6.82161e-16)
(1.14787 0.0201493 -6.77302e-16)
(1.15207 0.0202795 6.56821e-16)
(1.15634 0.020357 -6.36721e-16)
(1.16068 0.0203965 -2.11047e-17)
(1.16511 0.0203981 3.37655e-16)
(1.16957 0.0203431 -6.07886e-24)
(1.17403 0.0202174 -5.28038e-18)
(1.17844 0.0200352 5.27714e-18)
(1.13948 0.0169407 5.21373e-18)
(1.14344 0.0171995 6.72037e-16)
(1.1475 0.0173774 0)
(1.15165 0.0174917 -6.78354e-16)
(1.15588 0.0175604 -3.39658e-16)
(1.16018 0.0175968 0)
(1.16455 0.0176007 1.68963e-16)
(1.16896 0.0175558 1.69082e-16)
(1.17337 0.0174503 -5.28346e-18)
(1.17773 0.0172961 5.28058e-18)
(1.13924 0.0142708 -3.28605e-16)
(1.14316 0.0144903 3.33565e-16)
(1.14719 0.0146416 0)
(1.1513 0.0147393 0)
(1.15549 0.0147986 3.39712e-16)
(1.15975 0.0148312 0)
(1.16408 0.0148365 -1.05684e-17)
(1.16844 0.0148008 1.05741e-17)
(1.1728 0.0147141 -5.28649e-18)
(1.17713 0.0145867 5.28393e-18)
(1.13905 0.0116324 3.39152e-16)
(1.14294 0.0118122 -3.4432e-16)
(1.14693 0.0119364 0)
(1.15101 0.0120169 0)
(1.15517 0.0120663 0)
(1.1594 0.0120944 0)
(1.16369 0.0121005 1.05764e-17)
(1.16801 0.012073 -9.52234e-17)
(1.17233 0.0120042 -5.28947e-18)
(1.17663 0.011902 5.28722e-18)
(1.1389 0.0090198 0)
(1.14276 0.00915972 0)
(1.14673 0.00925637 0)
(1.15078 0.00931925 0)
(1.15492 0.00935802 0)
(1.15912 0.00938122 0)
(1.16338 0.00938739 -1.69347e-16)
(1.16767 0.00936755 8.46922e-17)
(1.17196 0.00931541 -8.99708e-17)
(1.17623 0.00923756 -7.93562e-17)
(1.13879 0.00642746 5.21992e-18)
(1.14263 0.00652707 -5.30084e-18)
(1.14658 0.00659589 0)
(1.15061 0.00664068 0)
(1.15473 0.00666848 0)
(1.15891 0.00668616 8.47583e-17)
(1.16315 0.00669188 -8.47343e-17)
(1.16741 0.00667887 4.23702e-17)
(1.17168 0.00664277 7.94289e-17)
(1.17593 0.00658827 8.99903e-17)
(1.13871 0.00384946 5.22037e-18)
(1.14254 0.00390845 -1.59056e-17)
(1.14648 0.00394926 1.06093e-17)
(1.1505 0.00397556 0)
(1.15461 0.00399204 -2.12322e-17)
(1.15877 0.0040035 -6.36122e-17)
(1.16299 0.0040083 7.4194e-17)
(1.16724 0.00400153 -5.29922e-17)
(1.17149 0.00398103 0)
(1.17573 0.00394921 0)
(1.13868 0.0012812 5.65522e-18)
(1.1425 0.00130029 -5.75864e-18)
(1.14643 0.00131322 0)
(1.15045 0.00132151 0)
(1.15455 0.00132647 0)
(1.15871 0.00133124 0)
(1.16292 0.00133375 1.15823e-17)
(1.16716 0.00133237 1.15865e-17)
(1.1714 0.00132615 5.79448e-18)
(1.17563 0.00131632 -5.79593e-18)
(1.0731 0.00622601 0)
(1.07359 0.0140887 0)
(1.06035 0.0210413 0)
(1.0585 0.0294334 0)
(1.0589 0.0381789 0)
(1.05822 0.0470016 0)
(1.05707 0.056165 0)
(1.05588 0.0658279 0)
(1.05468 0.0760662 0)
(1.0535 0.0869681 0)
(1.05238 0.0986404 0)
(1.05144 0.111197 0)
(1.05077 0.124756 0)
(1.05053 0.139436 0)
(1.0509 0.15535 0)
(1.05209 0.172586 0)
(1.05439 0.191169 0)
(1.05817 0.210974 0)
(1.06392 0.231428 0)
(1.07142 0.250284 0)
(1.07559 0.00508861 0)
(1.0742 0.0137752 0)
(1.06116 0.0214531 0)
(1.06009 0.0299139 0)
(1.06083 0.0386898 0)
(1.06042 0.0476053 0)
(1.05968 0.0568393 0)
(1.05896 0.0665232 0)
(1.0583 0.0767329 0)
(1.05771 0.0875491 0)
(1.05727 0.099064 0)
(1.05708 0.111373 0)
(1.05727 0.124572 0)
(1.05796 0.138752 0)
(1.05936 0.153991 0)
(1.06169 0.170335 0)
(1.06524 0.187748 0)
(1.07038 0.206003 0)
(1.0775 0.224395 0)
(1.08544 0.241387 0)
(1.07778 0.00429047 0)
(1.07553 0.0134516 0)
(1.06233 0.0216649 0)
(1.06166 0.0301663 0)
(1.06269 0.0389457 0)
(1.06258 0.0479178 0)
(1.06221 0.0571842 0)
(1.06193 0.0668483 0)
(1.06176 0.0769847 0)
(1.06172 0.0876672 0)
(1.0619 0.098974 0)
(1.06239 0.110983 0)
(1.06332 0.123767 0)
(1.06482 0.137391 0)
(1.06709 0.151902 0)
(1.07032 0.167305 0)
(1.07478 0.183522 0)
(1.08074 0.200288 0)
(1.08852 0.216957 0)
(1.09709 0.232308 0)
(1.07987 0.00397536 0)
(1.07721 0.0132556 0)
(1.06372 0.0216918 0)
(1.06327 0.0302218 0)
(1.06456 0.0390013 0)
(1.06472 0.0479865 0)
(1.06468 0.0572395 0)
(1.0648 0.0668441 0)
(1.06507 0.0768698 0)
(1.06553 0.0873816 0)
(1.06626 0.0984445 0)
(1.06735 0.11012 0)
(1.06892 0.122463 0)
(1.07111 0.135517 0)
(1.07409 0.149301 0)
(1.07803 0.163797 0)
(1.08315 0.178905 0)
(1.08968 0.194374 0)
(1.09783 0.209663 0)
(1.10686 0.223693 0)
(1.08191 0.00384234 0)
(1.07906 0.013108 0)
(1.06525 0.0216046 0)
(1.06494 0.0301266 0)
(1.06645 0.0388755 0)
(1.06685 0.0478242 0)
(1.06709 0.0570149 0)
(1.06756 0.0665171 0)
(1.06823 0.0763916 0)
(1.06913 0.0866938 0)
(1.07034 0.0974763 0)
(1.07196 0.108787 0)
(1.07408 0.120664 0)
(1.07684 0.133133 0)
(1.08039 0.146196 0)
(1.08489 0.159816 0)
(1.09051 0.17389 0)
(1.09742 0.18819 0)
(1.1058 0.202251 0)
(1.1151 0.215072 0)
(1.08393 0.00376504 0)
(1.08096 0.0129632 0)
(1.06684 0.0214384 0)
(1.06664 0.0299106 0)