/*--------------------------------*- C++ -*----------------------------------*\
  =========                 |
  \\      /  F ield         | OpenFOAM: The Open Source CFD Toolbox
   \\    /   O peration     | Website:  https://openfoam.org
    \\  /    A nd           | Version:  6
     \\/     M anipulation  |
\*---------------------------------------------------------------------------*/
FoamFile
{
    version     2.0;
    format      ascii;
    class       volVectorField;
    location    "1.45";
    object      U;
}
// * * * * * * * * * * * * * * * * * * * * * * * * * * * * * * * * * * * * * //

dimensions      [0 1 -1 0 0 0 0];

internalField   nonuniform List<vector> 
5600
(
(2.30773 0.00773867 3.73074e-19)
(1.30164 0.00863861 -6.42027e-18)
(0.961557 0.00742883 6.40608e-18)
(1.0202 0.00536074 0)
(1.06482 0.00445454 0)
(1.05934 0.00467401 0)
(1.04701 0.00511863 -1.1955e-17)
(1.03922 0.00551077 1.19279e-17)
(1.03255 0.00595351 0)
(1.02495 0.00651267 0)
(1.01639 0.00718556 0)
(1.00698 0.0079686 0)
(0.996612 0.00887272 0)
(0.985114 0.00991444 -2.35365e-17)
(0.97231 0.0111114 2.34838e-17)
(0.958013 0.0124812 -4.68638e-17)
(0.942019 0.0140375 4.67593e-17)
(0.92411 0.015778 0)
(0.904074 0.0176609 -3.63698e-19)
(0.881741 0.0195481 0)
(2.32514 0.0137516 -3.67874e-19)
(1.29409 0.0177226 6.33154e-18)
(0.961174 0.0172406 -6.31989e-18)
(1.02486 0.0149077 0)
(1.06806 0.0137901 0)
(1.06126 0.014203 2.44066e-17)
(1.04876 0.0151199 4.00397e-22)
(1.04104 0.0161651 -7.36578e-19)
(1.03436 0.0174418 1.53612e-22)
(1.02676 0.0190317 -2.3488e-17)
(1.01825 0.0209407 0)
(1.00893 0.0231759 -4.75304e-17)
(0.998689 0.0257668 4.67105e-17)
(0.987356 0.0287555 0)
(0.974762 0.0321891 0)
(0.960732 0.0361162 0)
(0.945071 0.0405723 0)
(0.927573 0.0455471 -4.62755e-17)
(0.908031 0.0509173 4.65494e-17)
(0.886185 0.0563258 4.54123e-17)
(2.34564 0.0146867 0)
(1.29026 0.0266219 0)
(0.958551 0.0284237 0)
(1.02698 0.0246629 0)
(1.07074 0.0229074 2.33882e-17)
(1.06362 0.0236353 -2.40834e-17)
(1.05129 0.0250754 -1.45746e-18)
(1.04389 0.0267299 -7.2766e-19)
(1.03746 0.028798 2.3251e-17)
(1.03008 0.0313952 -2.17656e-17)
(1.02181 0.0345236 -1.44891e-18)
(1.01278 0.0381949 4.7021e-17)
(1.00288 0.0424546 -4.7674e-17)
(0.991946 0.047367 1.44256e-18)
(0.979843 0.0530056 4.60947e-17)
(0.96641 0.0594457 -9.34928e-17)
(0.951473 0.0667425 -1.43688e-18)
(0.934843 0.0748767 4.58929e-17)
(0.91632 0.0836456 -1.43207e-18)
(0.895567 0.0924828 -7.15358e-19)
(2.3707 0.0175881 0)
(1.28815 0.0340047 -1.44141e-18)
(0.954999 0.0371903 0)
(1.02802 0.032823 0)
(1.07309 0.0309465 0)
(1.06615 0.0321889 0)
(1.0543 0.0342877 1.43602e-18)
(1.04749 0.036661 2.43887e-17)
(1.04157 0.0395943 -2.29315e-17)
(1.03466 0.0432408 -1.43183e-18)
(1.02687 0.0476051 2.86085e-18)
(1.01836 0.0527059 0)
(1.00905 0.0586052 -4.42569e-17)
(0.998801 0.0653885 4.42132e-17)
(0.987501 0.0731535 4.55954e-17)
(0.97503 0.0819997 -4.55504e-17)
(0.961248 0.0920008 9.24352e-17)
(0.945991 0.103132 -9.09232e-17)
(0.929087 0.115119 1.41931e-18)
(0.910151 0.12721 1.41849e-18)
(2.39992 0.0207819 -5.59085e-18)
(1.28596 0.0402129 7.06215e-18)
(0.950869 0.0441609 -1.13195e-17)
(1.02896 0.0394108 -1.13125e-17)
(1.07557 0.0376644 2.26179e-17)
(1.06897 0.0395557 2.26066e-17)
(1.0578 0.0424244 -2.25971e-17)
(1.05178 0.0456236 1.41175e-18)
(1.04658 0.0495056 1.41116e-18)
(1.04034 0.0542508 4.51386e-17)
(1.03324 0.0598655 -9.02392e-17)
(1.02547 0.0663753 1.40905e-18)
(1.01698 0.0738573 4.64903e-17)
(1.00768 0.0824156 1.4082e-18)
(0.997486 0.0921683 -4.36362e-17)
(0.986333 0.103236 4.78383e-17)
(0.974123 0.115707 1.40641e-18)
(0.960734 0.129552 0)
(0.94604 0.14443 1.4052e-18)
(0.929639 0.15942 1.40498e-18)
(2.43276 0.0237673 5.47095e-18)
(1.28314 0.0453953 -5.52863e-18)
(0.946243 0.0495898 1.38588e-18)
(1.03017 0.0444053 0)
(1.07848 0.0429254 2.2178e-17)
(1.07227 0.045595 -2.21825e-17)
(1.06188 0.0493411 1.38671e-18)
(1.0568 0.0534635 -4.71581e-17)
(1.05244 0.0583696 -2.77473e-18)
(1.047 0.0642539 8.88042e-17)
(1.04074 0.0711188 -4.71866e-17)
(1.03387 0.0789944 -1.38813e-18)
(1.02639 0.0879704 -4.72057e-17)
(1.01826 0.0981659 -4.58266e-17)
(1.00943 0.109715 8.75029e-17)
(0.99991 0.122753 8.61313e-17)
(0.989643 0.137379 -9.03155e-17)
(0.97856 0.15356 8.75539e-17)
(0.96659 0.170893 -1.7931e-16)
(0.953345 0.188302 8.75988e-17)
(2.46859 0.0267361 0)
(1.2789 0.0494085 0)
(0.940928 0.0531169 -1.35496e-18)
(1.03187 0.0475553 2.16952e-17)
(1.08205 0.0466132 -2.17144e-17)
(1.07619 0.0502494 -1.35822e-18)
(1.06663 0.0550001 -1.35945e-18)
(1.06255 0.0601461 1.36065e-18)
(1.05908 0.0661421 1.36185e-18)
(1.05449 0.0731847 0)
(1.04912 0.0812688 4.50203e-17)
(1.04327 0.0904293 2.21519e-22)
(1.03694 0.100767 -4.23659e-17)
(1.03013 0.112412 -8.61744e-17)
(1.02289 0.12551 1.75237e-16)
(1.01525 0.140205 -8.63246e-17)
(1.00722 0.156603 8.77718e-17)
(0.9988 0.174666 -8.6475e-17)
(0.989963 0.193941 -8.79243e-17)
(0.980355 0.213228 8.66278e-17)
(2.50653 0.0312973 0)
(1.27131 0.051689 1.31875e-18)
(0.934439 0.0536258 -2.11614e-17)
(1.03441 0.0485242 2.25201e-17)
(1.08655 0.0487459 -2.12247e-17)
(1.08079 0.0535679 2.39162e-17)
(1.07201 0.0594668 0)
(1.0689 0.0657492 1.33298e-18)
(1.06628 0.0728815 0)
(1.06252 0.0810602 -1.33728e-18)
(1.05808 0.0902822 4.28624e-17)
(1.05328 0.100591 -4.29314e-17)
(1.04818 0.112099 -8.60018e-17)
(1.04283 0.124946 8.47943e-17)
(1.03732 0.139282 0)
(1.03175 0.155256 0)
(1.0262 0.172975 8.65584e-17)
(1.02069 0.192405 2.00602e-22)
(1.01528 0.213067 -8.68376e-17)
(1.00965 0.233699 8.83294e-17)
(2.54579 0.0443308 -4.44003e-18)
(1.25541 0.0486901 4.48922e-18)
(0.927082 0.0471146 0)
(1.03934 0.0468164 -1.93822e-18)
(1.09233 0.0497536 -2.07198e-17)
(1.08592 0.0558232 -2.20674e-17)
(1.07782 0.0629903 8.32755e-17)
(1.0756 0.0705669 -4.30417e-17)
(1.07369 0.0788715 -4.18372e-17)
(1.07068 0.0881237 4.32479e-17)
(1.06715 0.0983647 -8.40761e-17)
(1.06343 0.109659 1.68556e-16)
(1.05962 0.122128 1.89862e-22)
(1.05582 0.135914 -8.46842e-17)
(1.05214 0.151167 0)
(1.04876 0.168027 8.50934e-17)
(1.04581 0.186602 -1.70598e-16)
(1.04338 0.206871 8.55053e-17)
(1.04163 0.22837 0)
(1.04029 0.249794 0)
(2.58855 0.0728332 -5.54475e-18)
(1.22076 0.0299088 4.36316e-18)
(0.925374 0.0278326 0)
(1.05244 0.0432565 2.07546e-17)
(1.09982 0.0511789 -2.01897e-17)
(1.09089 0.0578096 -4.05051e-17)
(1.0837 0.0660843 -3.90155e-22)
(1.08227 0.0750642 8.15301e-17)
(1.08086 0.0845146 -8.17917e-17)
(1.07852 0.0947138 4.10274e-17)
(1.0759 0.105831 -8.23192e-17)
(1.07331 0.117966 8.2585e-17)
(1.07084 0.131239 -8.28523e-17)
(1.06862 0.145785 8.31209e-17)
(1.06681 0.161737 8.3391e-17)
(1.06563 0.179216 -8.36625e-17)
(1.0653 0.198308 0)
(1.06601 0.21902 -8.42092e-17)
(1.06802 0.241064 8.44851e-17)
(1.07108 0.263183 8.47371e-17)
(0.853696 0.0211989 0)
(0.815587 0.0234737 0)
(0.769785 0.0260874 4.23413e-17)
(0.714165 0.0290999 -2.29827e-17)
(0.645861 0.0325273 -2.5132e-17)
(0.561196 0.0362207 4.1577e-17)
(0.456201 0.0396119 -1.54417e-17)
(0.326964 0.0413037 3.48467e-17)
(0.171841 0.0384479 0)
(0.0482458 0.0219039 0)
(0.8588 0.0613783 -1.83717e-17)
(0.821385 0.0683028 -5.92163e-17)
(0.776283 0.0762948 -2.12975e-17)
(0.721527 0.0855314 2.31199e-17)
(0.654254 0.0960659 2.52779e-17)
(0.57074 0.107441 -5.57464e-17)
(0.466888 0.117945 4.65701e-17)
(0.338521 0.123292 -8.75306e-17)
(0.18291 0.114472 -1.0024e-17)
(0.0548145 0.0654372 6.40854e-17)
(0.86956 0.100764 1.84477e-17)
(0.833441 0.112155 -1.98206e-17)
(0.789698 0.12534 4.27735e-17)
(0.736627 0.14058 4.64393e-17)
(0.671354 0.157962 -5.07833e-17)
(0.590071 0.176716 -2.8002e-17)
(0.488415 0.194009 3.11988e-17)
(0.361536 0.202705 -5.27847e-17)
(0.204921 0.187573 8.06249e-17)
(0.0679639 0.107404 -1.52369e-16)
(0.886279 0.138501 3.69216e-17)
(0.851962 0.154174 0)
(0.810136 0.17232 0)
(0.759461 0.193248 -4.64743e-17)
(0.697035 0.217077 5.08213e-17)
(0.618916 0.242722 2.15491e-21)
(0.520345 0.266241 0)
(0.395448 0.277753 7.0443e-17)
(0.237261 0.256223 -6.05199e-17)
(0.0872771 0.146538 1.87703e-16)
(0.908597 0.173306 -3.68265e-17)
(0.876526 0.192928 0)
(0.837101 0.215681 8.53708e-17)
(0.789447 0.241864 0)
(0.730598 0.27163 5.06651e-17)
(0.656434 0.303572 5.58708e-17)
(0.561687 0.332665 0)
(0.43917 0.346421 1.40383e-16)
(0.278823 0.318535 -2.00983e-17)
(0.112028 0.181667 -7.01034e-17)
(0.935705 0.204251 2.03867e-21)
(0.906259 0.227375 -1.57289e-16)
(0.869655 0.254269 -2.72172e-21)
(0.82555 0.285166 0)
(0.770885 0.320244 -5.03329e-17)
(0.701315 0.357774 -5.54832e-17)
(0.610971 0.391679 0)
(0.491114 0.407023 -1.39306e-16)
(0.328049 0.372837 -1.59429e-16)
(0.141228 0.21178 2.31555e-17)
(0.966525 0.230689 7.56269e-22)
(0.93999 0.256819 1.12166e-21)
(0.906546 0.287328 1.6806e-16)
(0.866416 0.32234 -1.29964e-21)
(0.816391 0.362041 -9.96323e-17)
(0.751877 0.404365 -1.09785e-16)
(0.666323 0.442202 -3.05481e-17)
(0.549268 0.45835 3.44133e-17)
(0.382991 0.417867 1.18068e-16)
(0.173635 0.236072 2.28378e-16)
(0.999854 0.25227 -1.81245e-21)
(0.976344 0.280944 7.69419e-17)
(0.946288 0.314541 -1.65912e-16)
(0.910427 0.353066 -4.49946e-17)
(0.865321 0.396684 2.45698e-16)
(0.806127 0.442957 1.08239e-16)
(0.725574 0.483762 -1.20377e-16)
(0.611365 0.499829 0)
(0.441503 0.452989 3.86989e-17)
(0.20785 0.254087 -4.03713e-16)
(1.03447 0.269082 -1.24961e-21)
(1.01357 0.299835 -7.57495e-17)
(0.986963 0.336062 4.09014e-21)
(0.955523 0.377579 -8.85192e-17)
(0.91549 0.424478 9.6622e-17)
(0.861851 0.473919 5.31749e-17)
(0.786585 0.516773 5.91001e-17)
(0.675414 0.531913 -3.32264e-17)
(0.501707 0.478607 3.79072e-17)
(0.242498 0.265917 1.75516e-16)
(1.06832 0.282766 -6.92994e-17)
(1.04891 0.315101 -7.43531e-17)
(1.02594 0.353579 8.0103e-17)
(0.999077 0.397605 8.67985e-17)
(0.964398 0.447053 -1.89409e-16)
(0.916788 0.498574 0)
(0.847271 0.542056 0)
(0.739184 0.554868 -3.24786e-17)
(0.560871 0.494674 3.70044e-17)
(0.275462 0.271314 0)
(1.09886 0.303817 6.77744e-17)
(1.08001 0.337254 7.27963e-17)
(1.06064 0.376118 0)
(1.03773 0.420404 -8.51453e-17)
(1.00763 0.469149 0)
(0.964843 0.518176 -1.02444e-16)
(0.899236 0.556739 -5.69806e-17)
(0.791991 0.562296 -6.4145e-17)
(0.608107 0.494109 -1.46601e-16)
(0.300835 0.266645 1.70072e-16)
(1.13115 0.322589 1.65503e-21)
(1.11604 0.356707 -1.48049e-16)
(1.10033 0.395163 2.28827e-21)
(1.08103 0.43847 8.66248e-17)
(1.05453 0.484714 0)
(1.01458 0.52881 1.04295e-16)
(0.949759 0.559506 0)
(0.839473 0.554873 1.30745e-16)
(0.647048 0.477186 1.59606e-20)
(0.319536 0.251611 -1.73558e-16)
(1.16466 0.33726 6.98917e-17)
(1.15383 0.370981 -7.50877e-17)
(1.14169 0.408303 2.42991e-16)
(1.1256 0.449579 -8.7904e-17)
(1.10177 0.492101 -9.60741e-17)
(1.0632 0.53003 -5.29468e-17)
(0.997265 0.551807 2.54078e-21)
(0.882039 0.536431 6.64373e-17)
(0.679977 0.449712 2.66051e-16)
(0.333534 0.230464 4.41554e-17)
(1.19919 0.346936 -1.41448e-16)
(1.19232 0.379533 0)
(1.18342 0.414957 -4.69932e-21)
(1.16991 0.453171 8.8987e-17)
(1.1477 0.490844 2.43219e-16)
(1.10904 0.521609 5.36253e-17)
(1.04032 0.533908 1.19454e-16)
(0.918619 0.508067 -1.01015e-16)
(0.706155 0.413916 -1.92764e-16)
(0.342698 0.205198 1.79255e-16)
(1.23403 0.351294 7.13938e-17)
(1.23055 0.382085 7.67082e-17)
(1.22426 0.414859 -1.65546e-16)
(1.21245 0.449067 -4.49344e-17)
(1.19057 0.480895 -1.96524e-16)
(1.15015 0.503677 -1.62537e-16)
(1.07679 0.50619 -2.41436e-16)
(0.947056 0.470549 1.36171e-16)
(0.723724 0.371139 0)
(0.346367 0.177084 -2.041e-16)
(1.26818 0.350129 1.07823e-16)
(1.26737 0.378488 0)
(1.26283 0.407922 0)
(1.25159 0.43733 0)
(1.22855 0.462551 0)
(1.18457 0.476848 1.09172e-16)
(1.10473 0.469661 1.21652e-16)
(0.965617 0.425319 0)
(0.731506 0.323161 0)
(0.344325 0.147439 -9.15005e-17)
(1.30058 0.343466 -3.60942e-17)
(1.30155 0.368844 -9.09033e-22)
(1.29769 0.394348 -4.18564e-17)
(1.28568 0.418338 4.54492e-17)
(1.25984 0.436462 -4.97092e-17)
(1.21052 0.44214 1.37088e-16)
(1.12256 0.425782 -3.05574e-17)
(0.973168 0.374256 6.8964e-17)
(0.729041 0.272026 -1.97604e-17)
(0.336763 0.11756 9.20099e-17)
(1.33015 0.331563 7.23021e-17)
(1.33187 0.353516 -3.88445e-17)
(1.32744 0.374625 0)
(1.31318 0.392778 -4.55253e-17)
(1.28288 0.403602 0)
(1.22654 0.400889 -5.49309e-17)
(1.12914 0.376285 -3.06094e-17)
(0.969152 0.319418 3.45438e-17)
(0.716474 0.219799 0)
(0.324173 0.0886226 -1.15242e-17)
(1.35586 0.314884 -5.41664e-17)
(1.35717 0.333095 3.88006e-17)
(1.35086 0.349488 0)
(1.33288 0.361586 0)
(1.29659 0.365166 4.97324e-17)
(1.23186 0.354603 -2.7432e-17)
(1.12424 0.323008 -3.05717e-17)
(0.953944 0.262877 -6.90062e-17)
(0.694696 0.168452 3.95456e-17)
(0.307342 0.0616589 -5.17853e-17)
(1.37704 0.294074 5.39644e-17)
(1.3769 0.308248 -5.97497e-22)
(1.36748 0.319612 -2.08562e-17)
(1.34437 0.325491 0)
(1.30065 0.322022 -2.4767e-17)
(1.22635 0.304397 -1.36585e-17)
(1.10795 0.267405 3.80541e-17)
(0.927986 0.206408 8.58782e-18)
(0.664413 0.119783 -4.42852e-17)
(0.286806 0.0375533 5.15372e-17)
(1.114 0.279618 -4.17207e-16)
(1.14369 0.296466 1.032e-16)
(1.17391 0.310092 0)
(1.20504 0.319493 1.0208e-16)
(1.23671 0.324386 -3.49186e-23)
(1.26802 0.324584 -1.56068e-18)
(1.29806 0.32005 7.76384e-19)
(1.32594 0.310942 -4.98668e-17)
(1.35078 0.297583 4.97095e-17)
(1.37185 0.280547 -2.46082e-17)
(1.12493 0.267174 2.08065e-16)
(1.15227 0.281261 0)
(1.17993 0.292791 0)
(1.20834 0.300865 1.00346e-16)
(1.23745 0.305167 1.56888e-18)
(1.26643 0.305526 -7.79645e-19)
(1.29448 0.30189 7.75691e-19)
(1.32085 0.294361 4.86711e-17)
(1.3448 0.283171 -4.92912e-17)
(1.36551 0.268845 2.45931e-17)
(1.13528 0.256656 0)
(1.15997 0.268481 -1.02837e-16)
(1.18508 0.277912 1.01904e-16)
(1.21087 0.2845 -1.01099e-16)
(1.23746 0.287958 0)
(1.2641 0.288139 -7.79949e-19)
(1.29011 0.284992 -9.85757e-17)
(1.31486 0.278586 0)
(1.33775 0.269091 0)
(1.35792 0.256975 -2.46207e-17)
(1.14436 0.246444 0)
(1.16683 0.256256 1.22228e-21)
(1.18962 0.2639 -1.01821e-16)
(1.213 0.269187 1.0106e-16)
(1.23716 0.271879 7.84445e-19)
(1.26151 0.27185 -1.00644e-16)
(1.28547 0.269058 -2.79798e-22)
(1.30853 0.263547 0)
(1.33022 0.255445 0)
(1.34966 0.24515 0)
(1.15183 0.23644 -1.0344e-16)
(1.17242 0.244602 2.05128e-16)
(1.19323 0.25079 7.94809e-19)
(1.21449 0.254982 -1.01812e-16)
(1.23648 0.256996 -7.84455e-19)
(1.25871 0.256739 -9.98977e-17)
(1.28073 0.254184 1.49989e-16)
(1.30212 0.249365 -3.87251e-19)
(1.32253 0.242379 -4.90553e-17)
(1.34111 0.233564 -2.46767e-17)
(1.15777 0.226611 2.06491e-16)
(1.17672 0.233463 -1.02429e-16)
(1.1958 0.238502 1.01653e-16)
(1.21525 0.241805 1.00195e-16)
(1.23534 0.24325 1.01982e-16)
(1.25569 0.242776 9.91511e-17)
(1.27593 0.240376 -4.97679e-17)
(1.29575 0.236083 -3.87577e-19)
(1.31489 0.229978 3.86347e-19)
(1.33253 0.222353 2.47045e-17)
(1.16234 0.216954 -1.03454e-16)
(1.17983 0.222746 -1.01892e-16)
(1.19741 0.226881 -1.01571e-16)
(1.21529 0.229485 -1.00947e-16)
(1.23374 0.230479 -9.96295e-17)
(1.25243 0.229829 9.8404e-17)
(1.27109 0.227545 -4.90207e-17)
(1.28946 0.223665 0)
(1.30738 0.218264 9.90831e-17)
(1.32407 0.211598 0)
(1.16572 0.20749 0)
(1.18189 0.212412 1.02157e-16)
(1.19815 0.215833 -1.01487e-16)
(1.21468 0.217893 7.88339e-19)
(1.2317 0.218543 -1.01984e-16)
(1.24895 0.217768 -1e-16)
(1.26621 0.21559 5.0608e-17)
(1.28328 0.21205 -4.9694e-17)
(1.30005 0.20722 -9.91835e-17)
(1.31581 0.201334 0)
(1.16805 0.198246 -1.02663e-16)
(1.18306 0.202449 0)
(1.19815 0.205303 1.01404e-16)
(1.21349 0.206944 1.01659e-16)
(1.22926 0.207339 1.27417e-22)
(1.24526 0.206486 9.92525e-17)
(1.26129 0.204414 0)
(1.2772 0.201166 4.97356e-17)
(1.29291 0.196813 4.98358e-17)
(1.30779 0.191572 -2.49825e-17)
(1.16951 0.189243 1.02472e-16)
(1.18347 0.192854 -1.01887e-16)
(1.19751 0.195256 1.01321e-16)
(1.21181 0.196574 -1.00045e-16)
(1.2265 0.196786 1.99265e-16)
(1.24139 0.195895 -9.85045e-17)
(1.25634 0.193934 -7.79555e-19)
(1.27121 0.190946 -3.88884e-19)
(1.28597 0.187001 -4.93042e-17)
(1.30002 0.1823 2.48168e-17)
(1.17022 0.180503 0)
(1.18324 0.183624 1.01753e-16)
(1.19636 0.185665 -1.01238e-16)
(1.20974 0.186734 -7.87452e-19)
(1.22346 0.186818 -9.88489e-17)
(1.23738 0.185921 -7.82055e-19)
(1.25138 0.184077 -7.80021e-19)
(1.26533 0.181326 7.78436e-19)
(1.27922 0.177736 4.97426e-17)
(1.29251 0.173497 2.48451e-17)
(1.17032 0.172039 1.02487e-16)
(1.1825 0.174756 -3.96951e-19)
(1.1948 0.176507 0)
(1.20735 0.177387 0)
(1.22022 0.177383 7.84514e-19)
(1.23327 0.176503 -5.16327e-17)
(1.24642 0.174778 1.36492e-23)
(1.25954 0.172247 5.0251e-17)
(1.27266 0.168973 3.89012e-19)
(1.28524 0.165135 -2.48732e-17)
(1.16993 0.163863 -1.01898e-16)
(1.18135 0.166245 -1.01485e-16)
(1.1929 0.167765 -1.01072e-16)
(1.20471 0.168498 -7.86859e-19)
(1.21682 0.168438 1.34781e-23)
(1.22911 0.167592 5.00851e-17)
(1.24149 0.165988 7.80997e-19)
(1.25388 0.163661 1.03093e-22)
(1.26628 0.160671 0)
(1.27822 0.157187 0)
(1.16913 0.15598 -1.02105e-16)
(1.17988 0.158086 2.03098e-16)
(1.19075 0.159419 1.0099e-16)
(1.20189 0.160041 0)
(1.21331 0.159948 -9.96358e-17)
(1.22491 0.159146 4.93192e-17)
(1.23661 0.157661 0)
(1.24833 0.155524 -5.03356e-17)
(1.26009 0.152793 -2.45574e-17)
(1.27144 0.149622 0)
(1.16802 0.148393 1.01915e-16)
(1.17815 0.150269 -1.01613e-16)
(1.18842 0.151451 0)
(1.19896 0.15199 9.98564e-17)
(1.20976 0.15188 1.00421e-16)
(1.22073 0.151129 -1.00238e-16)
(1.23181 0.14976 -4.92632e-17)
(1.24293 0.147801 0)
(1.2541 0.145304 2.49725e-17)
(1.2649 0.142416 0)
(1.16665 0.1411 1.01329e-16)
(1.17623 0.142786 0)
(1.18595 0.143846 0)
(1.19594 0.14432 -9.98188e-17)
(1.20618 0.144206 -1.1301e-23)
(1.21658 0.14351 4.85692e-17)
(1.2271 0.142253 5.08584e-17)
(1.23767 0.140458 -3.90854e-19)
(1.2483 0.138176 1.953e-19)
(1.25861 0.135542 1.9521e-19)
(1.1651 0.134096 -2.02282e-16)
(1.17417 0.135624 1.00952e-16)
(1.1834 0.136585 7.8704e-19)
(1.19288 0.137011 -7.85681e-19)
(1.20261 0.136901 -5.02112e-17)
(1.2125 0.136262 0)
(1.2225 0.13511 0)
(1.23257 0.133468 5.00718e-17)
(1.2427 0.131382 0)
(1.25255 0.128979 0)
(1.1634 0.127376 1.01348e-16)
(1.17202 0.128771 -1.01214e-16)
(1.18079 0.129651 7.86396e-19)
(1.18982 0.130042 -1.02099e-16)
(1.19907 0.129942 5.0996e-17)
(1.20849 0.129358 0)
(1.21803 0.128306 -7.83397e-19)
(1.22763 0.126806 -4.97225e-17)
(1.2373 0.124899 1.95698e-19)
(1.24673 0.122705 1.95656e-19)
(1.16161 0.120931 -1.0116e-16)
(1.16981 0.122214 3.93313e-19)
(1.17816 0.123027 -1.00577e-16)
(1.18677 0.123391 1.0049e-16)
(1.1956 0.123305 7.84553e-19)
(1.20459 0.122776 -7.84172e-19)
(1.21369 0.121818 4.93848e-17)
(1.22286 0.120448 7.83697e-19)
(1.23212 0.118706 0)
(1.24114 0.116703 0)
(1.15974 0.11475 -3.92585e-19)
(1.16756 0.115938 1.00948e-16)
(1.17554 0.116697 1.00495e-16)
(1.18376 0.117041 -1.01237e-16)
(1.1922 0.116972 5.09965e-17)
(1.20079 0.116495 0)
(1.20949 0.115624 -5.01996e-17)
(1.21827 0.114375 -3.92175e-19)
(1.22713 0.112783 3.92189e-19)
(1.23579 0.110953 0)
(1.15783 0.108823 3.92442e-19)
(1.1653 0.10993 -1.00816e-16)
(1.17294 0.110643 -1.00412e-16)
(1.18081 0.110973 1.00414e-16)
(1.18888 0.110922 -1.00424e-16)
(1.19711 0.110495 0)
(1.20545 0.109705 0)
(1.21386 0.108566 -3.92506e-19)
(1.22236 0.107113 -2.49293e-17)
(1.23067 0.105442 2.53262e-17)
(1.15591 0.103139 9.98173e-17)
(1.16306 0.104176 -9.99005e-17)
(1.17038 0.10485 1.0033e-16)
(1.17792 0.10517 -5.09718e-17)
(1.18566 0.105137 7.84599e-19)
(1.19355 0.104757 0)
(1.20155 0.104042 -5.02615e-17)
(1.20963 0.103005 -3.92838e-19)
(1.21779 0.101679 2.55442e-17)
(1.22579 0.100152 -2.51587e-17)
(1.15398 0.0976849 0)
(1.16084 0.0986612 1.00161e-16)
(1.16787 0.0993019 -1.00248e-16)
(1.17512 0.0996142 5.09524e-17)
(1.18255 0.0995995 4.94279e-17)
(1.19013 0.0992642 0)
(1.19781 0.0986184 4.95067e-17)
(1.20558 0.0976757 3.93178e-19)
(1.21342 0.0964649 1.96698e-19)
(1.22113 0.0950707 1.96779e-19)
(1.15206 0.0924501 3.89996e-19)
(1.15866 0.0933728 -3.90745e-19)
(1.16542 0.0939847 1.00166e-16)
(1.17239 0.0942912 7.8358e-19)
(1.17954 0.0942943 -5.02126e-17)
(1.18683 0.0940002 4.94856e-17)
(1.19423 0.0934185 -4.95372e-17)
(1.20171 0.0925619 2.40038e-17)
(1.20926 0.0914575 5.9069e-19)
(1.21669 0.0901844 -1.97005e-19)
(1.15018 0.0874226 9.92664e-17)
(1.15653 0.0882975 3.90235e-19)
(1.16304 0.0888839 0)
(1.16976 0.0891859 0)
(1.17665 0.0892057 2.39241e-23)
(1.18368 0.0889498 -5.0288e-17)
(1.19081 0.0884271 9.99224e-17)
(1.19802 0.0876497 3.93858e-19)
(1.2053 0.0866428 1.97101e-19)
(1.21246 0.0854806 1.282e-17)
(1.14833 0.0825909 -9.90841e-17)
(1.15445 0.0834226 -3.89725e-19)
(1.16074 0.0839858 -5.00009e-17)
(1.16723 0.084284 0)
(1.17388 0.0843194 5.02128e-17)
(1.18066 0.0840987 0)
(1.18755 0.0836303 -4.95984e-17)
(1.1945 0.0829255 -2.64095e-17)
(1.20153 0.0820082 3.94601e-19)
(1.20846 0.0809478 1.43573e-23)
(1.14653 0.0779438 -9.96776e-17)
(1.15245 0.0787358 3.89217e-19)
(1.15853 0.0792778 4.996e-17)
(1.1648 0.0795722 -7.82679e-19)
(1.17123 0.079622 7.84578e-19)
(1.17778 0.0794335 0)
(1.18444 0.0790149 -7.87758e-19)
(1.19116 0.0783768 3.94511e-19)
(1.19796 0.0775417 1.97505e-19)
(1.20466 0.0765746 -1.24541e-17)
(1.14478 0.0734706 9.87207e-17)
(1.15051 0.0742257 3.88709e-19)
(1.1564 0.0747475 -7.79981e-19)
(1.16247 0.0750382 1.56476e-18)
(1.1687 0.0751008 -7.84578e-19)
(1.17504 0.0749416 0)
(1.18148 0.0745685 -2.52239e-17)
(1.18799 0.0739916 0)
(1.19457 0.0732322 0)
(1.20106 0.0723508 1.26664e-17)
(1.14309 0.0691608 4.9463e-17)
(1.14865 0.0698809 0)
(1.15436 0.0703834 0)
(1.16025 0.0706698 -7.82077e-19)
(1.16629 0.0707437 -4.94282e-17)
(1.17244 0.0706111 0)
(1.17869 0.0702796 2.60282e-17)
(1.185 0.0697589 -1.18553e-18)
(1.19137 0.0690689 3.95817e-19)
(1.19766 0.0682663 -1.2681e-17)
(1.14147 0.0650041 -9.91307e-17)
(1.14687 0.0656908 3.87697e-19)
(1.15242 0.0661743 7.78703e-19)
(1.15814 0.066456 -5.15973e-17)
(1.164 0.0665395 1.01995e-16)
(1.16997 0.0664308 -7.87066e-19)
(1.17604 0.0661373 2.5255e-17)
(1.18216 0.0656681 -3.95509e-19)
(1.18834 0.065042 1.98114e-19)
(1.19446 0.0643118 1.9837e-19)
(1.13992 0.0609909 4.88972e-17)
(1.14517 0.0616452 3.87192e-19)
(1.15057 0.0621098 0)
(1.15614 0.062386 4.9233e-17)
(1.16184 0.0624775 -4.94281e-17)
(1.16764 0.0623903 2.51944e-17)
(1.17354 0.0621312 2.19222e-24)
(1.17949 0.0617092 -3.95844e-19)
(1.1855 0.0611418 3.96632e-19)
(1.19145 0.0604784 0)
(1.13844 0.0571118 -3.84312e-19)
(1.14356 0.0577344 3.86688e-19)
(1.14882 0.0581801 0)
(1.15424 0.0584499 -4.99951e-17)
(1.15979 0.0585477 7.84568e-19)
(1.16545 0.0584794 -5.11932e-17)
(1.17119 0.0582517 -2.52862e-17)
(1.17698 0.0578729 -2.57519e-17)
(1.18282 0.0573595 1.98522e-19)
(1.18862 0.0567575 1.9883e-19)
(1.13704 0.0533577 -4.9486e-17)
(1.14203 0.0539491 4.98177e-17)
(1.14717 0.0543754 0)
(1.15246 0.054638 5.07567e-17)
(1.15787 0.0547406 -7.84572e-19)
(1.16338 0.054689 2.52112e-17)
(1.16898 0.0544895 0)
(1.17463 0.0541503 2.49807e-17)
(1.18032 0.0536866 5.96173e-19)
(1.18596 0.0531413 -1.9906e-19)
(1.13572 0.0497201 4.863e-17)
(1.14059 0.0502803 3.8564e-19)
(1.14561 0.050687 7.76152e-19)
(1.15078 0.0509413 -7.80572e-19)
(1.15607 0.0510471 0)
(1.16145 0.05101 2.52195e-17)
(1.16691 0.0508361 -2.61086e-17)
(1.17242 0.050533 2.57957e-17)
(1.17798 0.0501151 1.98931e-19)
(1.18349 0.0496221 1.29539e-17)
(1.13447 0.0461905 -4.89236e-17)
(1.13925 0.0467197 -4.93032e-17)
(1.14416 0.0471061 0)
(1.14921 0.0473512 0)
(1.15438 0.0474587 0)
(1.15965 0.047434 -5.04558e-17)
(1.16498 0.0472831 7.91654e-19)
(1.17037 0.0470131 -2.6612e-17)
(1.1758 0.0466374 3.98271e-19)
(1.18118 0.0461927 -1.27694e-17)
(1.13331 0.042761 -3.81473e-19)
(1.13799 0.043259 3.84683e-19)
(1.1428 0.0436247 -7.74879e-19)
(1.14775 0.0438595 7.79965e-19)
(1.15282 0.0439672 7.84558e-19)
(1.15797 0.0439532 -7.88633e-19)
(1.1632 0.0438228 2.45565e-17)
(1.16847 0.043583 3.97536e-19)
(1.17377 0.0432462 3.98682e-19)
(1.17904 0.0428462 0)
(1.13223 0.039424 4.8365e-17)
(1.13682 0.0398905 3.84184e-19)
(1.14154 0.0402348 2.47759e-17)
(1.1464 0.0404583 7.79656e-19)
(1.15137 0.040565 -5.09007e-24)
(1.15642 0.0405597 -7.88894e-19)
(1.16154 0.0404477 0)
(1.1667 0.0402355 0)
(1.1719 0.0399345 1.2771e-17)
(1.17707 0.0395759 0)
(1.13123 0.0361722 3.80134e-19)
(1.13574 0.0366068 -3.83686e-19)
(1.14038 0.036929 -2.55292e-17)
(1.14516 0.0371403 4.88299e-24)
(1.15003 0.0372445 7.84555e-19)
(1.15499 0.0372463 2.5253e-17)
(1.16002 0.0371507 2.538e-17)
(1.16508 0.0369637 -3.98209e-19)
(1.17018 0.0366959 -1.23847e-17)
(1.17525 0.0363756 0)
(1.13031 0.0329983 -3.79445e-19)
(1.13475 0.0334006 3.83188e-19)
(1.13932 0.0337001 -2.47352e-17)
(1.14401 0.0338983 0)
(1.14881 0.0339988 0)
(1.15369 0.0340062 0)
(1.15862 0.0339251 -2.53956e-17)
(1.1636 0.033761 -1.31521e-17)
(1.1686 0.0335238 3.99922e-19)
(1.17358 0.0332392 0)
(1.12948 0.0298957 -3.78757e-19)
(1.13385 0.0302652 3.82692e-19)
(1.13835 0.0305411 2.39426e-17)
(1.14298 0.0307252 4.69231e-24)
(1.1477 0.0308209 7.84545e-19)
(1.1525 0.0308324 0)
(1.15736 0.0307642 7.94101e-19)
(1.16225 0.0306212 1.15678e-17)
(1.16717 0.0304123 -1.24104e-17)
(1.17207 0.030161 0)
(1.12872 0.0268576 0)
(1.13304 0.0271937 2.44605e-17)
(1.13748 0.0274454 2.46946e-17)
(1.14204 0.0276145 -7.78439e-19)
(1.14669 0.0277043 7.84539e-19)
(1.15143 0.0277187 0)
(1.15621 0.0276617 1.35081e-17)
(1.16104 0.027538 -1.19769e-18)
(1.16588 0.0273555 1.30244e-17)
(1.17071 0.0271352 2.00922e-19)
(1.12805 0.0238775 -3.77388e-19)
(1.13231 0.0241795 -2.40472e-17)
(1.1367 0.0244063 -2.39033e-17)
(1.1412 0.0245597 -4.53906e-24)
(1.1458 0.0246426 -7.84533e-19)
(1.15047 0.0246587 0)
(1.15519 0.0246117 -1.35164e-17)
(1.15995 0.0245056 3.99575e-19)
(1.16473 0.0243477 6.01751e-19)
(1.16949 0.0241564 -2.01157e-19)
(1.12745 0.0209489 3.76706e-19)
(1.13167 0.0212163 -3.81209e-19)
(1.13601 0.0214175 0)
(1.14047 0.0215543 0)
(1.14501 0.0216295 0)
(1.14963 0.0216464 -1.26473e-17)
(1.15429 0.0216081 -1.27292e-17)
(1.15899 0.0215183 -3.99912e-19)
(1.16371 0.0213834 2.00794e-19)
(1.16841 0.0212193 2.01392e-19)
(1.12693 0.0180655 -3.76026e-19)
(1.13112 0.0182976 3.80717e-19)
(1.13542 0.0184727 1.30867e-17)
(1.13983 0.0185924 -1.32179e-17)
(1.14432 0.0186591 0)
(1.14889 0.0186758 2.5303e-17)
(1.15351 0.0186452 1.27371e-17)
(1.15816 0.0185705 6.00383e-18)
(1.16282 0.018457 -6.23103e-18)
(1.16747 0.0183187 2.01628e-19)
(1.12649 0.0152208 -1.23865e-17)
(1.13064 0.0154172 1.25474e-17)
(1.13491 0.0155657 -1.23068e-17)
(1.13928 0.0156677 2.40938e-17)
(1.14374 0.0157254 7.84513e-19)
(1.14827 0.0157412 -2.53113e-17)
(1.15284 0.0157174 6.37247e-18)
(1.15745 0.0156566 -6.81017e-18)
(1.16207 0.0155635 6.84115e-18)
(1.16667 0.0154495 0)
(1.12612 0.0124087 1.23642e-17)
(1.13025 0.012569 -3.79737e-19)
(1.13449 0.0126906 -7.6854e-19)
(1.13883 0.0127746 -1.16537e-17)
(1.14326 0.0128227 0)
(1.14775 0.0128369 1.26598e-17)
(1.15229 0.0128191 -7.17346e-18)
(1.15686 0.0127714 -5.21223e-18)
(1.16144 0.0126974 -6.04261e-19)
(1.16601 0.0126065 2.02102e-19)
(1.12583 0.0096229 -1.1968e-17)
(1.12994 0.00974705 -2.20828e-24)
(1.13416 0.00984154 7.67908e-19)
(1.13848 0.00990722 -1.55321e-18)
(1.14288 0.00994542 1.56899e-18)
(1.14734 0.00995757 -7.12348e-18)
(1.15185 0.00994507 5.58281e-18)
(1.15639 0.00990952 3.61157e-18)
(1.16094 0.00985367 3.83098e-18)
(1.16548 0.00978474 -2.0234e-19)
(1.12561 0.00685746 1.15731e-17)
(1.1297 0.00694532 -1.17414e-17)
(1.13391 0.00701256 0)
(1.13821 0.00705971 0)
(1.14259 0.0070876 7.84484e-19)
(1.14704 0.00709717 5.5423e-18)
(1.15152 0.00708936 -6.38429e-18)
(1.15604 0.00706526 2.8114e-18)
(1.16057 0.00702677 -3.02761e-18)
(1.16508 0.00697896 2.02578e-19)
(1.12547 0.00410643 3.72655e-19)
(1.12955 0.00415781 -3.78268e-19)
(1.13374 0.00419754 3.06659e-18)
(1.13803 0.00422578 -7.75991e-19)
(1.1424 0.00424291 3.13791e-18)
(1.14683 0.0042494 -2.37605e-18)
(1.15131 0.00424576 0)
(1.15581 0.00423256 -4.01972e-19)
(1.16031 0.0042109 4.04105e-19)
(1.16481 0.0041837 -8.11265e-19)
(1.12539 0.00136582 -3.73013e-19)
(1.12947 0.00138173 3.78856e-19)
(1.13366 0.00139432 -3.8413e-18)
(1.13795 0.00140352 7.78019e-19)
(1.14231 0.00140939 -1.57376e-18)
(1.14673 0.00141203 1.58953e-18)
(1.1512 0.00141157 0)
(1.15569 0.00140813 -4.03622e-19)
(1.16019 0.00140204 2.02929e-19)
(1.16468 0.00139417 1.01864e-18)
(2.62718 0.0674472 0)
(1.18021 0.00751565 0)
(0.94248 0.0151838 0)
(1.07443 0.0439706 0)
(1.10552 0.0539419 0)
(1.09338 0.0594329 0)
(1.08802 0.0678754 0)
(1.08732 0.0775461 0)
(1.08617 0.0874406 0)
(1.08442 0.0978849 0)
(1.08266 0.109178 0)
(1.08107 0.12143 0)
(1.07974 0.13474 0)
(1.0788 0.149222 0)
(1.07846 0.164992 0)
(1.07891 0.182144 0)
(1.08045 0.200728 0)
(1.08347 0.220689 0)
(1.08848 0.241689 0)
(1.09506 0.262306 0)
(2.63944 0.0415559 0)
(1.15347 0.0149279 0)
(0.948342 0.0229166 0)
(1.0837 0.0438437 0)
(1.10721 0.0535921 0)
(1.09434 0.0603758 0)
(1.09044 0.0690523 0)
(1.09038 0.078646 0)
(1.08961 0.0885332 0)
(1.08845 0.0989533 0)
(1.08743 0.110131 0)
(1.08667 0.122165 0)
(1.08624 0.135139 0)
(1.0863 0.149144 0)
(1.08704 0.164264 0)
(1.08867 0.180557 0)
(1.09147 0.19802 0)
(1.09582 0.216501 0)
(1.10214 0.235439 0)
(1.10946 0.253182 0)
(2.64428 0.0226543 0)
(1.13731 0.0208834 0)
(0.946107 0.0289219 0)
(1.08509 0.043146 0)
(1.10662 0.052844 0)
(1.09414 0.0609016 0)
(1.09147 0.0697773 0)
(1.09216 0.0792478 0)
(1.092 0.0890804 0)
(1.09154 0.099427 0)
(1.0913 0.110438 0)
(1.09135 0.122197 0)
(1.09179 0.134777 0)
(1.09276 0.148246 0)
(1.09446 0.162657 0)
(1.09708 0.178033 0)
(1.10089 0.194327 0)
(1.10618 0.211342 0)
(1.11331 0.228476 0)
(1.12143 0.244214 0)
(2.64745 0.0141489 0)
(1.12838 0.0211948 0)
(0.94213 0.0300681 0)
(1.08366 0.0419158 0)
(1.10499 0.0518634 0)
(1.09308 0.0607146 0)
(1.09142 0.0698092 0)
(1.09293 0.0792784 0)
(1.09349 0.0890893 0)
(1.09377 0.0993537 0)
(1.0943 0.110186 0)
(1.09515 0.121662 0)
(1.0964 0.133842 0)
(1.09821 0.146778 0)
(1.10076 0.160499 0)
(1.10424 0.175002 0)
(1.10886 0.190218 0)
(1.11487 0.205939 0)
(1.12256 0.221603 0)
(1.13127 0.235795 0)
(2.65034 0.0105742 0)
(1.12362 0.0200699 0)
(0.938946 0.0294575 0)
(1.08185 0.0404558 0)
(1.10322 0.0505397 0)
(1.09172 0.0598494 0)
(1.09081 0.0691601 0)
(1.09305 0.0786884 0)
(1.0943 0.0884889 0)
(1.09529 0.0986615 0)
(1.09655 0.109304 0)
(1.09814 0.120486 0)
(1.10014 0.132259 0)
(1.10271 0.144659 0)
(1.10601 0.157701 0)
(1.1102 0.171364 0)
(1.11549 0.185568 0)
(1.12206 0.200109 0)
(1.13016 0.214469 0)
(1.13927 0.227322 0)
(2.65338 0.00908083 0)
(1.12134 0.0191239 0)
(0.936907 0.0285235 0)
(1.08045 0.0389769 0)
(1.10177 0.049013 0)
(1.09047 0.0585398 0)