/*--------------------------------*- C++ -*----------------------------------*\
  =========                 |
  \\      /  F ield         | OpenFOAM: The Open Source CFD Toolbox
   \\    /   O peration     | Website:  https://openfoam.org
    \\  /    A nd           | Version:  6
     \\/     M anipulation  |
\*---------------------------------------------------------------------------*/
FoamFile
{
    version     2.0;
    format      ascii;
    class       surfaceScalarField;
    location    "0.1";
    object      phi;
}
// * * * * * * * * * * * * * * * * * * * * * * * * * * * * * * * * * * * * * //

dimensions      [0 3 -1 0 0 0 0];

internalField   nonuniform List<scalar> 
11030
(
0.000112448
-2.36653e-07
0.000112574
-1.26248e-07
0.000112636
-6.23722e-08
0.000112633
3.73463e-09
0.000112543
8.97825e-08
0.000112361
1.82227e-07
0.000112083
2.77538e-07
0.000111704
3.7869e-07
0.000111217
4.87388e-07
0.000110613
6.03998e-07
0.000109884
7.28904e-07
0.000109021
8.62859e-07
0.000108014
1.00699e-06
0.000106851
1.16287e-06
0.000105519
1.33262e-06
0.000104
1.51871e-06
0.000102277
1.72336e-06
0.00010033
1.94704e-06
9.81439e-05
2.18564e-06
2.42166e-06
9.57223e-05
0.000112375
-3.96576e-07
0.000112478
-2.29399e-07
0.000112513
-9.75301e-08
0.000112463
5.39313e-08
0.000112325
2.28204e-07
0.000112095
4.11686e-07
0.000111769
6.036e-07
0.00011134
8.08159e-07
0.0001108
1.02751e-06
0.000110141
1.26242e-06
0.000109356
1.51379e-06
0.000108436
1.7831e-06
0.00010737
2.07257e-06
0.000106148
2.38535e-06
0.000104755
2.72567e-06
0.000103175
3.09845e-06
0.00010139
3.50812e-06
9.93818e-05
3.95564e-06
9.71345e-05
4.43289e-06
4.90953e-06
9.46467e-05
0.000112349
-5.21038e-07
0.000112391
-2.71633e-07
0.000112367
-7.35743e-08
0.000112264
1.57131e-07
0.000112073
4.1975e-07
0.000111789
6.95697e-07
0.000111407
9.85154e-07
0.000110921
1.29384e-06
0.000110325
1.62441e-06
0.000109609
1.97784e-06
0.000108768
2.35537e-06
0.000107792
2.75909e-06
0.000106672
3.19219e-06
0.000105398
3.65932e-06
0.000103957
4.16675e-06
0.000102334
4.72186e-06
0.00010051
5.33138e-06
9.84688e-05
5.99708e-06
9.6194e-05
6.70767e-06
7.42326e-06
9.36803e-05
0.000112308
-5.91134e-07
0.000112292
-2.5595e-07
0.000112207
1.15292e-08
0.000112043
3.21127e-07
0.000111792
6.71459e-07
0.000111447
1.03979e-06
0.000111006
1.42672e-06
0.000110461
1.83918e-06
0.000109805
2.28015e-06
0.000109032
2.7506e-06
0.000108136
3.25187e-06
0.000107108
3.78642e-06
0.000105942
4.35821e-06
0.000104628
4.97321e-06
0.000103155
5.6396e-06
0.00010151
6.36712e-06
9.96768e-05
7.1648e-06
9.76384e-05
8.03544e-06
9.53809e-05
8.96519e-06
9.90768e-06
9.28965e-05
0.000112261
-5.98593e-07
0.000112182
-1.76101e-07
0.00011203
1.63015e-07
0.0001118
5.5147e-07
0.000111483
9.88542e-07
0.000111074
1.44832e-06
0.000110569
1.93167e-06
0.000109962
2.44637e-06
0.000109247
2.99549e-06
0.000108418
3.57968e-06
0.000107469
4.20005e-06
0.000106397
4.85912e-06
0.000105194
5.56134e-06
0.000103853
6.31376e-06
0.000102366
7.12619e-06
0.000100723
8.01046e-06
9.89101e-05
8.97779e-06
9.69135e-05
1.0032e-05
9.47216e-05
1.11571e-05
1.23034e-05
9.23259e-05
0.00011221
-5.36154e-07
0.000112059
-2.54316e-08
0.000111835
3.86848e-07
0.000111533
8.53453e-07
0.000111147
1.37552e-06
0.00011067
1.92491e-06
0.000110099
2.50264e-06
0.000109428
3.11694e-06
0.000108653
3.77056e-06
0.00010777
4.46346e-06
0.000106773
5.19618e-06
0.000105662
5.97089e-06
0.000104431
6.79219e-06
0.000103077
7.66783e-06
0.000101594
8.60892e-06
9.99754e-05
9.62901e-06
9.8212e-05
1.07412e-05
9.62937e-05
1.19503e-05
9.4212e-05
1.32388e-05
1.45566e-05
9.19588e-05
0.000112154
-3.97583e-07
0.000111926
2.02824e-07
0.000111623
6.89722e-07
0.000111244
1.23235e-06
0.000110783
1.83639e-06
0.000110236
2.47268e-06
0.000109596
3.14189e-06
0.000108861
3.85211e-06
0.000108026
4.60534e-06
0.000107089
5.40043e-06
0.000106049
6.23687e-06
0.000104903
7.11609e-06
0.000103653
8.0424e-06
0.000102297
9.02387e-06
0.000100834
1.00725e-05
9.92597e-05
1.1203e-05
9.75708e-05
1.24301e-05
9.57612e-05
1.37599e-05
9.38263e-05
1.51738e-05
1.66251e-05
9.17577e-05
0.000112096
-1.78867e-07
0.000111783
5.15953e-07
0.000111393
1.07973e-06
0.000110932
1.69319e-06
0.000110394
2.37444e-06
0.000109772
3.09439e-06
0.000109062
3.85165e-06
0.000108261
4.65336e-06
0.000107366
5.50037e-06
0.000106377
6.38995e-06
0.000105293
7.32002e-06
0.000104119
8.29081e-06
0.000102855
9.30593e-06
0.000101506
1.03733e-05
0.000100073
1.15053e-05
9.85583e-05
1.27175e-05
9.69625e-05
1.40259e-05
9.52845e-05
1.54379e-05
9.35227e-05
1.69356e-05
1.84818e-05
9.1666e-05
0.000112043
1.14728e-07
0.000111631
9.2832e-07
0.000111143
1.56762e-06
0.000110597
2.23906e-06
0.00010998
2.99215e-06
0.000109281
3.79333e-06
0.000108497
4.63526e-06
0.000107627
5.52375e-06
0.000106669
6.45822e-06
0.000105625
7.43389e-06
0.000104498
8.44662e-06
0.000103294
9.49496e-06
0.000102019
1.05814e-05
0.000100679
1.17133e-05
9.92811e-05
1.29028e-05
9.78328e-05
1.41658e-05
9.63396e-05
1.5519e-05
9.48051e-05
1.69725e-05
9.32311e-05
1.85096e-05
2.00889e-05
9.1624e-05
0.000112
4.72916e-07
0.000111462
1.46667e-06
0.000110879
2.15066e-06
0.000110251
2.86642e-06
0.000109552
3.69179e-06
0.000108772
4.57303e-06
0.000107911
5.49658e-06
0.000106967
6.46747e-06
0.000105942
7.48326e-06
0.000104839
8.53653e-06
0.000103665
9.62064e-06
0.000102428
1.07322e-05
0.000101137
1.18722e-05
9.98037e-05
1.30469e-05
9.84388e-05
1.42677e-05
9.70552e-05
1.55495e-05
9.56667e-05
1.69075e-05
9.42861e-05
1.83531e-05
9.29061e-05
1.98895e-05
9.15262e-05
2.14689e-05
8.56933e-05
1.0029e-05
7.55404e-05
1.01529e-05
6.52375e-05
1.03029e-05
5.47657e-05
1.04718e-05
4.4126e-05
1.06397e-05
3.33796e-05
1.07463e-05
2.27328e-05
1.06469e-05
1.26971e-05
1.00356e-05
4.35282e-06
8.34429e-06
4.35282e-06
8.47208e-05
1.99548e-05
7.46603e-05
2.02134e-05
6.4448e-05
2.05152e-05
5.40684e-05
2.08514e-05
4.35265e-05
2.11816e-05
3.2889e-05
2.13838e-05
2.23645e-05
2.11713e-05
1.24629e-05
1.99373e-05
4.30025e-06
1.65069e-05
8.65308e-06
8.38665e-05
2.97686e-05
7.39068e-05
3.01731e-05
6.37898e-05
3.06322e-05
5.35025e-05
3.11387e-05
4.30522e-05
3.16319e-05
3.25088e-05
3.19272e-05
2.20853e-05
3.15949e-05
1.22953e-05
2.97272e-05
4.23277e-06
2.45695e-05
1.28858e-05
8.31871e-05
3.9478e-05
7.3322e-05
4.00382e-05
6.32939e-05
4.06603e-05
5.30896e-05
4.1343e-05
4.27167e-05
4.20049e-05
3.22463e-05
4.23976e-05
2.18945e-05
4.19467e-05
1.21787e-05
3.94431e-05
4.1868e-06
3.25613e-05
1.70726e-05
8.27083e-05
4.90956e-05
7.29254e-05
4.98211e-05
6.29732e-05
5.06125e-05
5.28365e-05
5.14797e-05
4.25206e-05
5.23208e-05
3.2097e-05
5.28212e-05
2.17847e-05
5.2259e-05
1.21077e-05
4.91201e-05
4.15636e-06
4.05126e-05
2.1229e-05
8.24193e-05
5.86352e-05
7.27049e-05
5.95355e-05
6.28142e-05
6.05032e-05
5.2727e-05
6.15669e-05
4.24454e-05
6.26024e-05
3.20407e-05
6.32259e-05
2.17366e-05
6.25631e-05
1.2067e-05
5.87897e-05
4.13316e-06
4.84465e-05
2.53622e-05
8.22814e-05
6.81115e-05
7.26221e-05
6.91947e-05
6.27785e-05
7.03467e-05
5.27221e-05
7.16233e-05
4.24514e-05
7.28732e-05
3.20389e-05
7.36384e-05
2.17158e-05
7.28861e-05
1.20313e-05
6.84742e-05
4.10403e-06
5.63738e-05
2.94662e-05
8.22319e-05
7.75456e-05
7.26135e-05
7.88132e-05
6.28028e-05
8.01575e-05
5.27574e-05
8.16687e-05
4.24751e-05
8.31555e-05
3.20325e-05
8.4081e-05
2.16727e-05
8.32459e-05
1.19652e-05
7.81817e-05
4.05113e-06
6.42879e-05
3.35173e-05
8.21726e-05
8.6997e-05
7.25782e-05
8.84075e-05
6.27827e-05
8.9953e-05
5.27293e-05
9.17221e-05
4.2421e-05
9.34637e-05
3.194e-05
9.4562e-05
2.15438e-05
9.36421e-05
1.18231e-05
8.79024e-05
3.94875e-06
7.21622e-05
3.74661e-05
8.19077e-05
9.66155e-05
7.23492e-05
9.7966e-05
6.2546e-05
9.97561e-05
5.248e-05
0.000101788
4.21568e-05
0.000103787
3.16581e-05
0.000105061
2.12502e-05
0.00010405
1.15405e-05
9.7612e-05
3.74495e-06
7.99578e-05
4.1211e-05
3.3736e-05
0.000101709
-3.88292e-05
2.85437e-05
0.000103158
2.33124e-05
0.000104987
1.80721e-05
0.000107028
1.29613e-05
0.000108898
8.24051e-06
0.000109782
4.28889e-06
0.000108002
1.52566e-06
0.000100375
1.95819e-07
8.12876e-05
4.14068e-05
2.88547e-05
0.000106353
-3.34986e-05
2.40703e-05
0.000107943
1.92405e-05
0.000109817
1.44608e-05
0.000111808
9.88738e-06
0.000113471
5.7818e-06
0.000113887
2.50161e-06
0.000111282
4.20844e-07
0.000102456
-2.81293e-07
8.19897e-05
4.11255e-05
2.41017e-05
0.000110592
-2.83414e-05
1.97273e-05
0.000112317
1.53234e-05
0.000114221
1.10127e-05
0.000116119
6.97563e-06
0.000117508
3.47974e-06
0.000117383
8.64944e-07
0.000113897
-5.42403e-07
0.000103863
-6.46727e-07
8.20941e-05
4.04788e-05
1.95342e-05
0.000114439
-2.3381e-05
1.5574e-05
0.000116277
1.16044e-05
0.000118191
7.76739e-06
0.000119956
4.26286e-06
0.000121013
1.3643e-06
0.000120282
-6.05218e-07
0.000115866
-1.37069e-06
0.000104629
-9.34583e-07
8.1658e-05
3.95442e-05
1.51875e-05
0.000117901
-1.86494e-05
1.1638e-05
0.000119827
8.10477e-06
0.000121724
4.74238e-06
0.000123318
1.76449e-06
0.000123991
-5.52918e-07
0.000122599
-1.90644e-06
0.00011722
-2.07548e-06
0.000104798
-1.16137e-06
8.07439e-05
3.83829e-05
1.10849e-05
0.000120987
-1.41709e-05
7.93788e-06
0.000122974
4.83645e-06
0.000124825
1.94372e-06
0.000126211
-5.18038e-07
0.000126452
-2.2746e-06
0.000124356
-3.04592e-06
0.000117991
-2.66805e-06
0.00010442
-1.33675e-06
7.94126e-05
3.70461e-05
7.23805e-06
0.000123707
-9.95788e-06
4.48276e-06
0.000125729
1.80365e-06
0.000127504
-6.29792e-07
0.000128644
-2.59067e-06
0.000128413
-3.81044e-06
0.000125575
-4.03591e-06
0.000118216
-3.1611e-06
0.000103545
-1.46991e-06
7.77214e-05
3.55762e-05
3.64605e-06
0.000126071
-6.01075e-06
1.2702e-06
0.000128105
-9.99012e-07
0.000129774
-2.98717e-06
0.000130633
-4.46545e-06
0.000129892
-5.17436e-06
0.000126284
-4.89084e-06
0.000117933
-3.56761e-06
0.000102222
-1.56918e-06
7.57229e-05
3.4007e-05
2.98601e-07
0.000128097
-2.3239e-06
-1.71244e-06
0.000130116
-3.58567e-06
0.000131647
-5.14302e-06
0.00013219
-6.15626e-06
0.000130905
-6.37909e-06
0.000126507
-5.62302e-06
0.000117177
-3.89988e-06
0.000100499
-1.64322e-06
7.34663e-05
3.23638e-05
-2.84006e-06
1.15046e-06
0.000129786
-4.48867e-06
0.000131765
-5.96834e-06
0.000133127
-7.09929e-06
0.000133321
-7.65869e-06
0.000131464
-7.4206e-06
0.000126269
-6.23643e-06
0.000115993
-4.17275e-06
9.84352e-05
-1.71047e-06
7.1004e-05
3.06533e-05
7.96023e-05
-3.95196e-05
-7.89119e-05
8.05087e-05
-3.4405e-05
8.15877e-05
-2.94204e-05
8.27817e-05
-2.45749e-05
8.40428e-05
-1.99105e-05
8.53179e-05
-1.5446e-05
8.65527e-05
-1.11927e-05
8.76956e-05
-7.15368e-06
8.86998e-05
-3.3281e-06
3.20325e-07
8.953e-05
8.02005e-05
-4.00047e-05
-7.97154e-05
8.08683e-05
-3.50728e-05
8.17053e-05
-3.02575e-05
8.26627e-05
-2.55323e-05
8.36966e-05
-2.09444e-05
8.47606e-05
-1.65099e-05
8.58071e-05
-1.22392e-05
8.67912e-05
-8.13779e-06
8.76711e-05
-4.20796e-06
-4.23905e-07
8.84153e-05
8.0714e-05
-4.02814e-05
-8.04373e-05
8.11749e-05
-3.55336e-05
8.1794e-05
-3.08766e-05
8.2534e-05
-2.62723e-05
8.33563e-05
-2.17667e-05
8.42211e-05
-1.73747e-05
8.5088e-05
-1.31062e-05
8.59188e-05
-8.96852e-06
8.66774e-05
-4.96653e-06
-1.08314e-06
8.73366e-05
8.11519e-05
-4.03981e-05
-8.10351e-05
8.14348e-05
-3.58166e-05
8.18617e-05
-3.13035e-05
8.24051e-05
-2.68157e-05
8.30335e-05
-2.23951e-05
8.37142e-05
-1.80554e-05
8.44136e-05
-1.38056e-05
8.50997e-05
-9.65458e-06
8.5742e-05
-5.60885e-06
-1.65833e-06
8.63172e-05
8.15106e-05
-4.03833e-05
-8.15254e-05
8.16425e-05
-3.59485e-05
8.19031e-05
-3.15641e-05
8.22734e-05
-2.7186e-05
8.27289e-05
-2.28506e-05
8.32435e-05
-1.857e-05
8.37903e-05
-1.43524e-05
8.43428e-05
-1.02071e-05
8.48759e-05
-6.1419e-06
-2.15167e-06
8.53692e-05
8.17922e-05
-4.02523e-05
-8.19232e-05
8.17933e-05
-3.59496e-05
8.19106e-05
-3.16815e-05
8.21312e-05
-2.74065e-05
8.2436e-05
-2.31555e-05
8.28047e-05
-1.89387e-05
8.32159e-05
-1.47636e-05
8.36483e-05
-1.06395e-05
8.40812e-05
-6.57475e-06
-2.56778e-06
8.44973e-05
8.20038e-05
-4.00165e-05
-8.22396e-05
8.18898e-05
-3.58356e-05
8.18834e-05
-3.16751e-05
8.1975e-05
-2.74982e-05
8.215e-05
-2.33305e-05
8.23924e-05
-1.9181e-05
8.26852e-05
-1.50564e-05
8.30115e-05
-1.09658e-05
8.33545e-05
-6.91776e-06
-2.91304e-06
8.36997e-05
8.21539e-05
-3.96861e-05
-8.24843e-05
8.19381e-05
-3.56198e-05
8.18241e-05
-3.15611e-05
8.18047e-05
-2.74787e-05
8.18681e-05
-2.3394e-05
8.20018e-05
-1.93146e-05
8.21923e-05
-1.52469e-05
8.24262e-05
-1.11997e-05
8.269e-05
-7.18155e-06
-3.19471e-06
8.29717e-05
8.22509e-05
-3.92704e-05
-8.26666e-05
8.19448e-05
-3.53137e-05
8.1737e-05
-3.13533e-05
8.16216e-05
-2.73633e-05
8.15892e-05
-2.33616e-05
8.16295e-05
-1.9355e-05
8.17322e-05
-1.53496e-05
8.18863e-05
-1.13539e-05
8.2081e-05
-7.3763e-06
-3.42024e-06
8.23066e-05
8.23027e-05
-3.87782e-05
-8.2795e-05
8.19166e-05
-3.49275e-05
8.16266e-05
-3.10633e-05
8.14279e-05
-2.71647e-05
8.13129e-05
-2.32466e-05
8.12732e-05
-1.93153e-05
8.13005e-05
-1.53768e-05
8.1386e-05
-1.14394e-05
8.15211e-05
-7.51136e-06
-3.59676e-06
8.16976e-05
8.23164e-05
-3.82174e-05
-8.28772e-05
8.18593e-05
-3.44703e-05
8.14972e-05
-3.07012e-05
8.12262e-05
-2.68936e-05
8.10398e-05
-2.30602e-05
8.09313e-05
-1.92068e-05
8.0894e-05
-1.53394e-05
8.09206e-05
-1.14661e-05
8.10043e-05
-7.59504e-06
-3.73084e-06
8.11384e-05
8.22983e-05
-3.75955e-05
-8.29202e-05
8.17783e-05
-3.39504e-05
8.1353e-05
-3.02759e-05
8.10189e-05
-2.65596e-05
8.07708e-05
-2.28121e-05
8.0603e-05
-1.9039e-05
8.051e-05
-1.52465e-05
8.04862e-05
-1.14423e-05
8.05257e-05
-7.63455e-06
-3.82831e-06
8.06232e-05
8.2254e-05
-3.69193e-05
-8.29302e-05
8.16785e-05
-3.33749e-05
8.11976e-05
-2.9795e-05
8.08085e-05
-2.61704e-05
8.05067e-05
-2.25103e-05
8.02876e-05
-1.882e-05
8.01468e-05
-1.51056e-05
8.00796e-05
-1.1375e-05
8.00811e-05
-7.63611e-06
-3.89428e-06
8.01471e-05
8.21883e-05
-3.61951e-05
-8.29125e-05
8.15638e-05
-3.27505e-05
8.10342e-05
-2.92653e-05
8.05969e-05
-2.57332e-05
8.02484e-05
-2.21618e-05
7.9985e-05
-1.85565e-05
7.98028e-05
-1.49235e-05
7.96981e-05
-1.12703e-05
7.9667e-05
-7.605e-06
-3.93312e-06
7.97058e-05
8.21054e-05
-3.54283e-05
-8.28721e-05
8.14379e-05
-3.20829e-05
8.08654e-05
-2.86929e-05
8.0386e-05
-2.52538e-05
7.99969e-05
-2.17726e-05
7.96948e-05
-1.82544e-05
7.94768e-05
-1.47054e-05
7.93397e-05
-1.11333e-05
7.92804e-05
-7.54571e-06
-3.94858e-06
7.92959e-05
8.2009e-05
-3.46241e-05
-8.28132e-05
8.13035e-05
-3.13774e-05
8.06935e-05
-2.80828e-05
8.01773e-05
-2.47376e-05
7.97526e-05
-2.13479e-05
7.94169e-05
-1.79188e-05
7.91678e-05
-1.44563e-05
7.90027e-05
-1.09682e-05
7.8919e-05
-7.46204e-06
-3.94385e-06
7.89143e-05
8.19023e-05
-3.37869e-05
-8.27394e-05
8.11634e-05
-3.06386e-05
8.05204e-05
-2.74398e-05
7.99719e-05
-2.41891e-05
7.95161e-05
-2.08921e-05
7.91511e-05
-1.75537e-05
7.88749e-05
-1.41801e-05
7.86855e-05
-1.07788e-05
7.85807e-05
-7.35724e-06
-3.92163e-06
7.85585e-05
8.17878e-05
-3.29208e-05
-8.2654e-05
8.10197e-05
-2.98705e-05
8.03476e-05
-2.67678e-05
7.97709e-05
-2.36123e-05
7.92879e-05
-2.04092e-05
7.88973e-05
-1.71631e-05
7.85974e-05
-1.38803e-05
7.83868e-05
-1.05681e-05
7.82636e-05
-7.23407e-06
-3.88425e-06
7.82263e-05
8.16679e-05
-3.20291e-05
-8.25595e-05
8.0874e-05
-2.90766e-05
8.01766e-05
-2.60703e-05
7.9575e-05
-2.30107e-05
7.90682e-05
-1.99024e-05
7.86551e-05
-1.675e-05
7.83346e-05
-1.35598e-05
7.81055e-05
-1.0339e-05
7.79663e-05
-7.09489e-06
-3.83368e-06
7.79158e-05
8.15444e-05
-3.1115e-05
-8.24585e-05
8.0728e-05
-2.82602e-05
8.00082e-05
-2.53506e-05
7.93848e-05
-2.23873e-05
7.88571e-05
-1.93747e-05
7.84244e-05
-1.63173e-05
7.80859e-05
-1.32213e-05
7.78405e-05
-1.00937e-05
7.76874e-05
-6.94174e-06
-3.77162e-06
7.76253e-05
8.14191e-05
-3.01813e-05
-8.23528e-05
8.05828e-05
-2.74239e-05
7.98434e-05
-2.46112e-05
7.92008e-05
-2.17448e-05
7.86548e-05
-1.88286e-05
7.82049e-05
-1.58674e-05
7.78505e-05
-1.28669e-05
7.7591e-05
-9.83421e-06
7.74256e-05
-6.77637e-06
-3.69952e-06
7.73535e-05
8.12932e-05
-2.92303e-05
-8.22442e-05
8.04394e-05
-2.65701e-05
7.96828e-05
-2.38545e-05
7.90234e-05
-2.10854e-05
7.84613e-05
-1.82665e-05
7.79962e-05
-1.54023e-05
7.76279e-05
-1.24986e-05
7.7356e-05
-9.5623e-06
7.71799e-05
-6.60029e-06
-3.61865e-06
7.7099e-05
8.11679e-05
-2.82642e-05
-8.2134e-05
8.02988e-05
-2.57011e-05
7.9527e-05
-2.30827e-05
7.88528e-05
-2.04112e-05
7.82765e-05
-1.76901e-05
7.7798e-05
-1.49238e-05
7.74175e-05
-1.21181e-05
7.71347e-05
-9.27948e-06
7.69492e-05
-6.41481e-06
-3.53009e-06
7.68606e-05
8.10441e-05
-2.72847e-05
-8.20236e-05
8.01616e-05
-2.48185e-05
7.93764e-05
-2.22975e-05
7.86892e-05
-1.9724e-05
7.81003e-05
-1.71013e-05
7.76101e-05
-1.44336e-05
7.72188e-05
-1.17268e-05
7.69264e-05
-8.98704e-06
7.67327e-05
-6.22108e-06
-3.43478e-06
7.66374e-05
8.09227e-05
-2.62935e-05
-8.19138e-05
8.00282e-05
-2.39241e-05
7.92313e-05
-2.15006e-05
7.85326e-05
-1.90253e-05
7.79327e-05
-1.65014e-05
7.74322e-05
-1.39331e-05
7.70314e-05
-1.1326e-05
7.67305e-05
-8.68614e-06
7.65295e-05
-6.02007e-06
-3.33356e-06
7.64282e-05
8.08041e-05
-2.52921e-05
-8.18056e-05
7.98993e-05
-2.30192e-05
7.90919e-05
-2.06933e-05
7.83831e-05
-1.83164e-05
7.77735e-05
-1.58918e-05
7.72638e-05
-1.34235e-05
7.68546e-05
-1.09168e-05
7.65462e-05
-8.37777e-06
7.63388e-05
-5.81266e-06
-3.22712e-06
7.62324e-05
8.06891e-05
-2.42816e-05
-8.16996e-05
7.9775e-05
-2.21052e-05
7.89585e-05
-1.98768e-05
7.82407e-05
-1.75986e-05
7.76225e-05
-1.52736e-05
7.71047e-05
-1.29057e-05
7.66881e-05
-1.05002e-05
7.63731e-05
-8.06279e-06
7.61601e-05
-5.5996e-06
-3.11609e-06
7.60491e-05
8.05779e-05
-2.32631e-05
-8.15964e-05
7.96557e-05
-2.1183e-05
7.88311e-05
-1.90522e-05
7.81053e-05
-1.68729e-05
7.74795e-05
-1.46478e-05
7.69546e-05
-1.23808e-05
7.65315e-05
-1.0077e-05
7.62107e-05
-7.74198e-06
7.59926e-05
-5.38153e-06
-3.00101e-06
7.58775e-05
8.04709e-05
-2.22376e-05
-8.14964e-05
7.95415e-05
-2.02536e-05
7.87098e-05
-1.82204e-05
7.7977e-05
-1.61401e-05
7.73444e-05
-1.40152e-05
7.68132e-05
-1.18496e-05
7.63842e-05
-9.64805e-06
7.60583e-05
-7.416e-06
7.58358e-05
-5.15905e-06
-2.88236e-06
7.57171e-05
8.03684e-05
-2.12059e-05
-8.14001e-05
7.94327e-05
-1.93179e-05
7.85946e-05
-1.73824e-05
7.78556e-05
-1.54011e-05
7.72171e-05
-1.33767e-05
7.66802e-05
-1.13127e-05
7.62461e-05
-9.21392e-06
7.59155e-05
-7.08544e-06
7.56891e-05
-4.93265e-06
-2.76054e-06
7.55673e-05
8.02705e-05
-2.01687e-05
-8.13076e-05
7.93292e-05
-1.83766e-05
7.84855e-05
-1.65387e-05
7.7741e-05
-1.46566e-05
7.70972e-05
-1.27328e-05
7.65553e-05
-1.07709e-05
7.61166e-05
-8.77521e-06
7.5782e-05
-6.75079e-06
7.55521e-05
-4.70276e-06
-2.63593e-06
7.54275e-05
8.01774e-05
-1.91268e-05
-8.12194e-05
7.92312e-05
-1.74304e-05
7.83826e-05
-1.569e-05
7.76332e-05
-1.39072e-05
7.69846e-05
-1.20843e-05
7.64383e-05
-1.02246e-05
7.59956e-05
-8.33243e-06
7.56573e-05
-6.41252e-06
7.54243e-05
-4.46979e-06
-2.50883e-06
7.52972e-05
8.00893e-05
-1.80806e-05
-8.11355e-05
7.91387e-05
-1.64799e-05
7.82857e-05
-1.4837e-05
7.7532e-05
-1.31535e-05
7.68792e-05
-1.14315e-05
7.6329e-05
-9.67435e-06
7.58826e-05
-7.88601e-06
7.55411e-05
-6.07103e-06
7.53053e-05
-4.23406e-06
-2.37952e-06
7.5176e-05
8.00062e-05
-1.70307e-05
-8.10561e-05
7.90518e-05
-1.55254e-05
7.81948e-05
-1.39801e-05
7.74372e-05
-1.23959e-05
7.67808e-05
-1.0775e-05
7.6227e-05
-9.12058e-06
7.57773e-05
-7.43637e-06
7.5433e-05
-5.72665e-06
7.51948e-05
-3.99589e-06
-2.24825e-06
7.50635e-05
7.99281e-05
-1.59775e-05
-8.09813e-05
7.89703e-05
-1.45676e-05
7.81099e-05
-1.31197e-05
7.73489e-05
-1.16349e-05
7.66891e-05
-1.01152e-05
7.61322e-05
-8.56368e-06
7.56797e-05
-6.98383e-06
7.53327e-05
-5.37971e-06
7.50924e-05
-3.75552e-06
-2.11522e-06
7.49593e-05
7.98551e-05
-1.49215e-05
-8.09111e-05
7.88943e-05
-1.36068e-05
7.80309e-05
-1.22562e-05
7.72668e-05
-1.08708e-05
7.66041e-05
-9.45248e-06
7.60444e-05
-8.00398e-06
7.55892e-05
-6.52871e-06
7.524e-05
-5.03047e-06
7.49977e-05
-3.5132e-06
-1.98064e-06
7.48631e-05
7.97872e-05
-1.3863e-05
-8.08457e-05
7.88238e-05
-1.26434e-05
7.79576e-05
-1.13901e-05
7.71909e-05
-1.0104e-05
7.65255e-05
-8.7871e-06
7.59633e-05
-7.44179e-06
7.55059e-05
-6.07129e-06
7.51546e-05
-4.67918e-06
7.49105e-05
-3.26913e-06
-1.84466e-06
7.47745e-05
7.97243e-05
-1.28023e-05
-8.0785e-05
7.87586e-05
-1.16777e-05
7.78901e-05
-1.05216e-05
7.7121e-05
-9.33491e-06
7.64533e-05
-8.11938e-06
7.58888e-05
-6.87736e-06
7.54294e-05
-5.61181e-06
7.50762e-05
-4.32605e-06
7.48306e-05
-3.0235e-06
-1.70742e-06
7.46934e-05
7.96665e-05
-1.17399e-05
-8.0729e-05
7.86988e-05
-1.071e-05
7.78283e-05
-9.65098e-06
7.7057e-05
-8.56367e-06
7.63872e-05
-7.44959e-06
7.58208e-05
-6.31095e-06
7.53595e-05
-5.15049e-06
7.50047e-05
-3.97127e-06
7.47577e-05
-2.77646e-06
-1.56907e-06
7.46193e-05
7.96138e-05
-1.06758e-05
-8.06778e-05
7.86444e-05
-9.74056e-06
7.7772e-05
-8.77858e-06
7.69989e-05
-7.79057e-06
7.63272e-05
-6.77796e-06
7.57591e-05
-5.74277e-06
7.52961e-05
-4.68753e-06
7.49398e-05
-3.61502e-06
7.46915e-05
-2.52816e-06
-1.42972e-06
7.45522e-05
7.9566e-05
-9.61047e-06
-8.06314e-05
7.85952e-05
-8.76969e-06
7.77212e-05
-7.9046e-06
7.69465e-05
-7.01584e-06
7.62732e-05
-6.1047e-06
7.57034e-05
-5.17302e-06
7.5239e-05
-4.22309e-06
7.48814e-05
-3.25745e-06
7.4632e-05
-2.27874e-06
-1.28946e-06
7.44918e-05
7.95233e-05
-8.54407e-06
-8.05897e-05
7.85512e-05
-7.79758e-06
7.76758e-05
-7.02927e-06
7.68997e-05
-6.23969e-06
7.6225e-05
-5.43001e-06
7.56538e-05
-4.60188e-06
7.51881e-05
-3.75735e-06
7.48294e-05
-2.8987e-06
7.45789e-05
-2.0283e-06
-1.14839e-06
7.44378e-05
7.94854e-05
-7.47684e-06
-8.05527e-05
7.85123e-05
-6.82446e-06
7.76358e-05
-6.1528e-06
7.68585e-05
-5.46232e-06
7.61825e-05
-4.75407e-06
7.56101e-05
-4.02951e-06
7.51432e-05
-3.29045e-06
7.47834e-05
-2.5389e-06
7.45321e-05
-1.77695e-06
-1.0066e-06
7.43903e-05
7.94525e-05
-6.409e-06
-8.05203e-05
7.84786e-05
-5.85054e-06
7.76011e-05
-5.27537e-06
7.68227e-05
-4.6839e-06
7.61457e-05
-4.07703e-06
7.55722e-05
-3.45605e-06
7.51043e-05
-2.82251e-06
7.47436e-05
-2.17816e-06
7.44914e-05
-1.5248e-06
-8.64171e-07
7.4349e-05
7.94245e-05
-5.34076e-06
-8.04927e-05
7.84499e-05
-4.876e-06
7.75717e-05
-4.39716e-06
7.67924e-05
-3.9046e-06
7.61144e-05
-3.39907e-06
7.554e-05
-2.88165e-06
7.50712e-05
-2.35367e-06
7.47096e-05
-1.81659e-06
7.44568e-05
-1.27194e-06
-7.21163e-07
7.43138e-05
7.94012e-05
-4.27231e-06
-8.04697e-05
7.84263e-05
-3.90103e-06
7.75475e-05
-3.51835e-06
7.67674e-05
-3.12457e-06
7.60887e-05
-2.7203e-06
7.55134e-05
-2.30643e-06
7.50438e-05
-1.88404e-06
7.46815e-05
-1.4543e-06
7.4428e-05
-1.01845e-06
-5.77652e-07
7.42845e-05
7.93828e-05
-3.20384e-06
-8.04513e-05
7.84076e-05
-2.92579e-06
7.75283e-05
-2.63909e-06
7.67477e-05
-2.34395e-06
7.60683e-05
-2.04088e-06
7.54924e-05
-1.73053e-06
7.50221e-05
-1.41374e-06
7.46592e-05
-1.09139e-06
7.44052e-05
-7.64418e-07
-4.33709e-07
7.42612e-05
7.93692e-05
-2.13554e-06
-8.04375e-05
7.83939e-05
-1.95045e-06
7.75143e-05
-1.75951e-06
7.67333e-05
-1.56289e-06
7.60533e-05
-1.36092e-06
7.54768e-05
-1.15407e-06
7.5006e-05
-9.42879e-07
7.46425e-05
-7.27961e-07
7.43881e-05
-5.09935e-07
-2.89403e-07
7.42438e-05
7.93603e-05
-1.06754e-06
-8.04283e-05
7.8385e-05
-9.75145e-07
7.75053e-05
-8.79771e-07
7.67239e-05
-7.81522e-07
7.60436e-05
-6.80579e-07
7.54667e-05
-5.77174e-07
7.49954e-05
-4.71588e-07
7.46316e-05
-3.64123e-07
7.43767e-05
-2.55095e-07
-1.44807e-07
7.42321e-05
7.93561e-05
-8.04237e-05
7.8381e-05
7.75012e-05
7.67197e-05
7.60391e-05
7.54619e-05
7.49903e-05
7.46262e-05
7.43711e-05
7.42263e-05
7.73336e-05
5.51137e-07
7.73373e-05
1.46299e-06
7.73119e-05
2.17604e-06
7.72497e-05
2.92861e-06
7.7178e-05
3.76351e-06
7.70996e-05
4.65141e-06
7.70121e-05
5.58414e-06
7.69169e-05
6.56262e-06
7.6818e-05
7.58213e-06
7.67204e-05
8.63413e-06
7.66306e-05
9.71045e-06
7.65573e-05
1.08055e-05
7.65114e-05
1.19181e-05
7.65067e-05
1.30516e-05
7.65603e-05
1.42142e-05
7.66928e-05
1.54169e-05
7.69307e-05
1.66697e-05
7.73111e-05
1.79727e-05
7.79104e-05
1.92902e-05
2.04674e-05
7.73704e-05
6.01312e-07
7.73664e-05
1.46692e-06
7.73505e-05
2.19201e-06
7.73101e-05
2.96903e-06
7.72615e-05
3.81204e-06
7.72088e-05
4.70412e-06
7.71515e-05
5.64151e-06
7.70915e-05
6.62256e-06
7.7033e-05
7.6406e-06
7.69814e-05
8.68578e-06
7.69436e-05
9.74828e-06
7.69285e-05
1.08206e-05
7.69477e-05
1.1899e-05
7.70148e-05
1.29844e-05
7.71469e-05
1.4082e-05
7.7365e-05
1.51989e-05
7.7695e-05
1.63397e-05
7.81709e-05
1.74967e-05
7.88366e-05
1.86245e-05
1.95886e-05
7.74074e-05
6.24587e-07
7.73991e-05
1.47519e-06
7.73891e-05
2.20202e-06
7.73669e-05
2.9912e-06
7.73398e-05
3.83913e-06
7.73115e-05
4.7325e-06
7.72828e-05
5.67021e-06
7.72562e-05
6.64915e-06
7.72358e-05
7.66097e-06
7.72271e-05
8.69447e-06
7.72372e-05
9.73822e-06
7.72749e-05
1.07828e-05
7.73514e-05
1.18225e-05
7.748e-05
1.28558e-05
7.76768e-05
1.38853e-05
7.79608e-05
1.49148e-05
7.83548e-05
1.59458e-05
7.88841e-05
1.69674e-05
7.95736e-05
1.7935e-05
1.87249e-05
7.74313e-05
6.34525e-07
7.74284e-05
1.47809e-06
7.74265e-05
2.2039e-06
7.74201e-05
2.99761e-06
7.74128e-05
3.84645e-06
7.74074e-05
4.73785e-06
7.74057e-05
5.67192e-06
7.74103e-05
6.64452e-06
7.74254e-05
7.64594e-06
7.74562e-05
8.66363e-06
7.75097e-05
9.68469e-06
7.75946e-05
1.0698e-05
7.77211e-05
1.1696e-05
7.79017e-05
1.26752e-05
7.8151e-05
1.36359e-05
7.84857e-05
1.45801e-05
7.89246e-05
1.55069e-05
7.9487e-05
1.6405e-05
8.0189e-05
1.7233e-05
1.78788e-05
7.74501e-05
6.36359e-07
7.74539e-05
1.47429e-06
7.7461e-05
2.19679e-06
7.7469e-05
2.98961e-06
7.74799e-05
3.83555e-06
7.7496e-05
4.72175e-06
7.75194e-05
5.64858e-06
7.75528e-05
6.61112e-06
7.76002e-05
7.59849e-06
7.76669e-05
8.59694e-06
7.77594e-05
9.59223e-06
7.78856e-05
1.05718e-05
7.80552e-05
1.15264e-05
7.82793e-05
1.24511e-05
7.85708e-05
1.33444e-05
7.8944e-05
1.42069e-05
7.94141e-05
1.50368e-05
7.9996e-05
1.58231e-05
8.07002e-05
1.65288e-05
1.70537e-05
7.7466e-05
6.33016e-07
7.74764e-05
1.46389e-06
7.74924e-05
2.18074e-06
7.75135e-05
2.96856e-06
7.75409e-05
3.8081e-06
7.75767e-05
4.68598e-06
7.7623e-05
5.60233e-06
7.76825e-05
6.55155e-06
7.77592e-05
7.52178e-06
7.7858e-05
8.49821e-06
7.79848e-05
9.46544e-06
7.81469e-05
1.04096e-05
7.8353e-05
1.13203e-05
7.86129e-05
1.21911e-05
7.89378e-05
1.30196e-05
7.93395e-05
1.38052e-05
7.98304e-05
1.45458e-05
8.04219e-05
1.52316e-05
8.11207e-05
1.58299e-05
1.62511e-05
7.74802e-05
6.2612e-07
7.74966e-05
1.44748e-06
7.7521e-05
2.15633e-06
7.75537e-05
2.93583e-06
7.7596e-05
3.76586e-06
7.76495e-05
4.6325e-06
7.77163e-05
5.5355e-06
7.77993e-05
6.46857e-06
7.7902e-05
7.41906e-06
7.80289e-05
8.37126e-06
7.81856e-05
9.30878e-06
7.83785e-05
1.02168e-05
7.86151e-05
1.10837e-05
7.8904e-05
1.19022e-05
7.92546e-05
1.2669e-05
7.96768e-05
1.3383e-05
8.01804e-05
1.40422e-05
8.0774e-05
1.4638e-05
8.1462e-05
1.51419e-05
1.54736e-05
7.74934e-05
6.16584e-07
7.7515e-05
1.42582e-06
7.75469e-05
2.12442e-06
7.75899e-05
2.89283e-06
7.76452e-05
3.71056e-06
7.77144e-05
4.56334e-06
7.77995e-05
5.45042e-06
7.79031e-05
6.36494e-06
7.80286e-05
7.29355e-06
7.818e-05
8.21981e-06
7.83623e-05
9.12654e-06
7.8581e-05
9.99803e-06
7.88427e-05
1.0822e-05
7.91546e-05
1.15903e-05
7.95246e-05
1.22991e-05
7.99606e-05
1.2947e-05
8.04706e-05
1.35323e-05
8.10608e-05
1.40478e-05
8.17339e-05
1.44687e-05
1.47232e-05
7.75058e-05
6.04982e-07
7.75319e-05
1.39965e-06
7.75704e-05
2.08597e-06
7.76223e-05
2.84089e-06
7.7689e-05
3.6439e-06
7.77718e-05
4.48052e-06
7.78728e-05
5.34948e-06
7.79943e-05
6.2434e-06
7.81394e-05
7.14841e-06
7.83118e-05
8.04745e-06
7.85156e-05
8.92272e-06
7.87558e-05
9.75789e-06
7.90377e-05
1.054e-05
7.93674e-05
1.12606e-05
7.97514e-05
1.19152e-05
8.01959e-05
1.25024e-05
8.07072e-05
1.3021e-05
8.12898e-05
1.34652e-05
8.1945e-05
1.38135e-05
1.40017e-05
7.75176e-05
5.91731e-07
7.75476e-05
1.36965e-06
7.75917e-05
2.04188e-06
7.76512e-05
2.7813e-06
7.77276e-05
3.56752e-06
7.78222e-05
4.38597e-06
7.79367e-05
5.23493e-06
7.80735e-05
6.10658e-06
7.82353e-05
6.98661e-06
7.84253e-05
7.85751e-06
7.8647e-05
8.70104e-06
7.89045e-05
9.50038e-06
7.92023e-05
1.02422e-05
7.95454e-05
1.09175e-05
7.99387e-05
1.15218e-05
8.03875e-05
1.20537e-05
8.08961e-05
1.25124e-05
8.14679e-05
1.28934e-05
8.21031e-05
1.31783e-05
1.33098e-05
7.75288e-05
5.77132e-07
7.7562e-05
1.33646e-06
7.76109e-05
1.99306e-06
7.76769e-05
2.71526e-06
7.77615e-05
3.48295e-06
7.78659e-05
4.28155e-06
7.79919e-05
5.10894e-06
7.81415e-05
5.95695e-06
7.83172e-05
6.81094e-06
7.85216e-05
7.65311e-06
7.87577e-05
8.46487e-06
7.9029e-05
9.22912e-06
7.9339e-05
9.93219e-06
7.96915e-05
1.0565e-05
8.00905e-05
1.11228e-05
8.05399e-05
1.16044e-05
8.10428e-05
1.20094e-05
8.16015e-05
1.23347e-05
8.22153e-05
1.25645e-05
1.2648e-05
7.75396e-05
5.61427e-07
7.75754e-05
1.30066e-06
7.76282e-05
1.9403e-06
7.76996e-05
2.64388e-06
7.77909e-05
3.39159e-06
7.79035e-05
4.16895e-06
7.80389e-05
4.97351e-06
7.81991e-05
5.7968e-06
7.8386e-05
6.62399e-06
7.86021e-05
7.43707e-06
7.88497e-05
8.21727e-06
7.91315e-05
8.94732e-06
7.94503e-05
9.6134e-06
7.9809e-05
1.02063e-05
8.02105e-05
1.07212e-05
8.06576e-05
1.11572e-05
8.11526e-05
1.15145e-05
8.16965e-05
1.17908e-05
8.2288e-05
1.1973e-05
1.20158e-05
7.75499e-05
5.44835e-07
7.75878e-05
1.26275e-06
7.76438e-05
1.88438e-06
7.77195e-05
2.56817e-06
7.78163e-05
3.29473e-06
7.79355e-05
4.04974e-06
7.80786e-05
4.83046e-06
7.82472e-05
5.62823e-06
7.84431e-05
6.42807e-06
7.86682e-05
7.21193e-06
7.89245e-05
7.96096e-06
7.9214e-05
8.65782e-06
7.95388e-05
9.28865e-06
7.99009e-05
9.84418e-06
8.03023e-05
1.03198e-05
8.07449e-05
1.07146e-05
8.123e-05
1.10294e-05
8.17581e-05
1.12628e-05
8.23271e-05
1.14039e-05
1.14127e-05
7.75597e-05
5.27551e-07
7.75993e-05
1.22319e-06
7.76577e-05
1.82595e-06
7.77368e-05
2.48905e-06
7.7838e-05
3.19354e-06
7.79625e-05
3.92533e-06
7.81115e-05
4.68145e-06
7.82866e-05
5.4531e-06
7.84894e-05
6.22529e-06
7.87213e-05
6.97996e-06
7.8984e-05
7.69832e-06
7.92787e-05
8.36307e-06
7.9607e-05
8.96039e-06
7.99701e-05
9.48107e-06
8.03693e-05
9.92061e-06
8.08056e-05
1.02783e-05
8.12797e-05
1.05553e-05
8.17911e-05
1.07513e-05
8.23377e-05
1.08573e-05
1.08379e-05
7.75691e-05
5.09749e-07
7.76099e-05
1.18239e-06
7.76702e-05
1.76562e-06
7.77519e-05
2.40733e-06
7.78564e-05
3.08905e-06
7.79848e-05
3.79697e-06
7.81383e-05
4.52795e-06
7.83183e-05
5.27309e-06
7.85261e-05
6.01747e-06
7.87629e-05
6.74315e-06
7.90298e-05
7.43144e-06
7.93277e-05
8.0652e-06
7.96573e-05
8.63072e-06
8.00195e-05
9.11889e-06
8.04148e-05
9.52537e-06
8.08434e-05
9.84966e-06
8.13054e-05
1.00933e-05
8.18e-05
1.02568e-05
8.23244e-05
1.03329e-05
1.02902e-05