/*--------------------------------*- C++ -*----------------------------------*\
  =========                 |
  \\      /  F ield         | OpenFOAM: The Open Source CFD Toolbox
   \\    /   O peration     | Website:  https://openfoam.org
    \\  /    A nd           | Version:  6
     \\/     M anipulation  |
\*---------------------------------------------------------------------------*/
FoamFile
{
    version     2.0;
    format      ascii;
    class       volVectorField;
    location    "0.1";
    object      U;
}
// * * * * * * * * * * * * * * * * * * * * * * * * * * * * * * * * * * * * * //

dimensions      [0 1 -1 0 0 0 0];

internalField   nonuniform List<vector> 
5600
(
(0.957726 0.000123265 3.75747e-19)
(0.987599 0.000678328 -6.44767e-18)
(0.998542 0.00119444 6.43289e-18)
(0.994925 0.00177558 0)
(0.990486 0.00237385 0)
(0.986951 0.00297607 0)
(0.982922 0.00361267 -1.19989e-17)
(0.977919 0.00429993 1.19716e-17)
(0.97198 0.00503977 0)
(0.965114 0.00583389 0)
(0.957259 0.00668664 0)
(0.948341 0.0076039 0)
(0.938285 0.00859359 0)
(0.927011 0.00966683 -2.36224e-17)
(0.914421 0.0108384 2.35696e-17)
(0.900399 0.0121258 -4.70348e-17)
(0.884808 0.0135449 4.69299e-17)
(0.867499 0.0150992 0)
(0.848313 0.0167594 -3.65023e-19)
(0.82712 0.018411 0)
(0.95772 0.000677217 -3.70508e-19)
(0.988032 0.00225951 6.35836e-18)
(0.998578 0.00371028 -6.34614e-18)
(0.994809 0.00531521 0)
(0.990451 0.00701953 0)
(0.986992 0.00878716 2.44965e-17)
(0.98301 0.0106579 7.06636e-23)
(0.978062 0.0126624 -7.394e-19)
(0.972198 0.0148112 1.11568e-22)
(0.965426 0.0171124 -2.3574e-17)
(0.957687 0.0195773 0)
(0.94891 0.0222215 -4.77041e-17)
(0.939029 0.0250671 4.68813e-17)
(0.927967 0.0281457 0)
(0.915637 0.0314993 0)
(0.901933 0.0351771 0)
(0.886729 0.0392232 0)
(0.869885 0.0436463 -4.64441e-17)
(0.851245 0.0483622 4.6719e-17)
(0.830598 0.0530861 4.55785e-17)
(0.958104 0.0014058 0)
(0.988347 0.00383585 0)
(0.99865 0.00615454 0)
(0.994823 0.00881265 0)
(0.99054 0.0116255 2.34743e-17)
(0.987175 0.014539 -2.41721e-17)
(0.983293 0.0176244 -1.46281e-18)
(0.978474 0.0209275 -7.30324e-19)
(0.972777 0.0244634 2.33361e-17)
(0.966213 0.0282442 -2.18453e-17)
(0.958728 0.0322871 -1.45421e-18)
(0.950264 0.0366163 4.71929e-17)
(0.940762 0.041267 -4.78483e-17)
(0.930162 0.0462901 1.44782e-18)
(0.918392 0.0517537 4.6263e-17)
(0.905364 0.0577377 -9.38339e-17)
(0.890972 0.0643143 -1.44203e-18)
(0.875091 0.0714997 4.60602e-17)
(0.857569 0.0791609 -1.43729e-18)
(0.838129 0.0868621 -7.17978e-19)
(0.958876 0.0020604 0)
(0.988717 0.00544908 -1.44841e-18)
(0.998758 0.00863435 0)
(0.994947 0.0122792 0)
(0.990779 0.0161489 0)
(0.987549 0.0201689 0)
(0.983831 0.0244287 1.44129e-18)
(0.979225 0.0289859 2.4478e-17)
(0.973798 0.033858 -2.30155e-17)
(0.967569 0.0390586 -1.43707e-18)
(0.960494 0.044608 2.87131e-18)
(0.952525 0.0505364 0)
(0.943624 0.0568896 -4.44185e-17)
(0.933749 0.0637356 4.43748e-17)
(0.922854 0.0711665 4.57618e-17)
(0.910878 0.0792914 -4.57167e-17)
(0.897745 0.0882106 9.27722e-17)
(0.883353 0.0979525 -9.12547e-17)
(0.867578 0.108347 1.42448e-18)
(0.850105 0.118839 1.42368e-18)
(0.960048 0.00269701 -5.62553e-18)
(0.989202 0.00705976 7.10263e-18)
(0.998897 0.0110866 -1.13589e-17)
(0.995156 0.015659 -1.13542e-17)
(0.991162 0.0205267 2.2699e-17)
(0.988122 0.0255972 2.26897e-17)
(0.984638 0.030971 -2.26802e-17)
(0.980332 0.0367133 1.41692e-18)
(0.975282 0.0428416 1.41633e-18)
(0.969516 0.0493679 4.53037e-17)
(0.963002 0.056312 -9.05692e-17)
(0.955712 0.0637062 1.41427e-18)
(0.947627 0.0716031 4.66602e-17)
(0.938733 0.0800846 1.41334e-18)
(0.929013 0.089263 -4.37955e-17)
(0.918447 0.0992725 4.80129e-17)
(0.906996 0.110239 1.41154e-18)
(0.894595 0.122206 0)
(0.881167 0.134972 1.41033e-18)
(0.866405 0.147886 1.41013e-18)
(0.961627 0.00332425 5.50494e-18)
(0.989806 0.00863703 -5.56164e-18)
(0.99906 0.0134633 1.39062e-18)
(0.995439 0.0189024 0)
(0.991679 0.0247008 2.22594e-17)
(0.988887 0.0307518 -2.2264e-17)
(0.985704 0.0371629 1.39178e-18)
(0.981784 0.0440029 -4.73306e-17)
(0.977214 0.051286 -2.78488e-18)
(0.972033 0.0590185 8.91289e-17)
(0.966225 0.0672152 -4.73591e-17)
(0.959781 0.0759061 -1.3932e-18)
(0.952708 0.0851467 -4.73781e-17)
(0.945022 0.0950275 -4.59939e-17)
(0.936746 0.105676 8.78225e-17)
(0.927902 0.117246 8.64457e-17)
(0.918499 0.129886 -9.06451e-17)
(0.908518 0.143651 8.78732e-17)
(0.897947 0.158316 -1.79964e-16)
(0.886528 0.173152 8.79199e-17)
(0.963611 0.00393125 0)
(0.990529 0.0101599 0)
(0.999242 0.0157349 -1.3596e-18)
(0.995784 0.0219659 2.17728e-17)
(0.992316 0.0286129 -2.17921e-17)
(0.989828 0.0355597 -1.36321e-18)
(0.987012 0.0429162 -1.36442e-18)
(0.983558 0.05075 1.36563e-18)
(0.979563 0.0590676 1.36683e-18)
(0.975076 0.0678651 0)
(0.970098 0.0771474 4.51848e-17)
(0.964644 0.0869373 1.87645e-22)
(0.958748 0.0972879 -4.25207e-17)
(0.952459 0.108293 -8.64891e-17)
(0.945841 0.12009 1.75877e-16)
(0.938965 0.132846 -8.66398e-17)
(0.931894 0.146723 8.80921e-17)
(0.924657 0.161793 -8.67906e-17)
(0.917323 0.177811 -8.82451e-17)
(0.909714 0.193998 8.69456e-17)
(0.965995 0.00448559 0)
(0.991381 0.0116187 1.32503e-18)
(0.999445 0.0178861 -2.1234e-17)
(0.996181 0.0248068 2.25975e-17)
(0.993064 0.0322024 -2.13026e-17)
(0.990935 0.0399481 2.4004e-17)
(0.988547 0.048145 0)
(0.985627 0.0568537 1.33785e-18)
(0.982287 0.0660689 0)
(0.978584 0.0757713 -1.34217e-18)
(0.974537 0.0859507 4.30191e-17)
(0.970184 0.0966177 -4.30883e-17)
(0.965586 0.107818 -8.63161e-17)
(0.960828 0.119643 8.51042e-17)
(0.956015 0.132232 0)
(0.951272 0.145759 0)
(0.946715 0.160397 8.68746e-17)
(0.942426 0.176233 1.73039e-22)
(0.938561 0.19302 -8.71547e-17)
(0.93506 0.209969 8.86537e-17)
(0.968761 0.00487265 -4.46686e-18)
(0.992423 0.0130739 4.51702e-18)
(0.999665 0.0199806 0)
(0.996616 0.0274325 -1.94497e-18)
(0.993925 0.0354719 -2.07958e-17)
(0.992209 0.0439375 -2.21482e-17)
(0.990296 0.0528852 8.35802e-17)
(0.987965 0.0623618 -4.31989e-17)
(0.985338 0.0723474 -4.19902e-17)
(0.98248 0.0828024 4.3406e-17)
(0.979429 0.0936958 -8.43836e-17)
(0.976244 0.105022 1.69172e-16)
(0.973013 0.116813 1.74944e-22)
(0.969854 0.129155 -8.49938e-17)
(0.966915 0.142183 0)
(0.964368 0.15607 8.54045e-17)
(0.962392 0.170997 -1.71222e-16)
(0.961126 0.187079 8.58178e-17)
(0.960837 0.204088 0)
(0.961645 0.221185 0)
(0.971891 0.00498504 -5.58014e-18)
(0.993918 0.0146601 4.39048e-18)
(0.999893 0.0220883 0)
(0.997082 0.0298427 2.08288e-17)
(0.994972 0.0384382 -2.02619e-17)
(0.993729 0.0475856 -4.06532e-17)
(0.992312 0.0572315 -4.82528e-23)
(0.990597 0.0674037 8.18278e-17)
(0.988711 0.0780693 -8.20905e-17)
(0.986723 0.089163 4.11773e-17)
(0.984686 0.100628 -8.26202e-17)
(0.982681 0.112437 8.28869e-17)
(0.980821 0.12461 -8.31552e-17)
(0.979251 0.137219 8.34247e-17)
(0.978157 0.150392 8.36956e-17)
(0.977759 0.164294 -8.3968e-17)
(0.978301 0.179102 0)
(0.980016 0.194976 -8.45165e-17)
(0.983268 0.211867 8.47933e-17)
(0.988302 0.228938 8.50479e-17)
(0.800719 0.0198486 0)
(0.765071 0.0218977 0)
(0.722344 0.0243215 4.24948e-17)
(0.670442 0.0271789 -2.3066e-17)
(0.606548 0.0304768 -2.5223e-17)
(0.527076 0.0340507 4.17272e-17)
(0.428217 0.0373194 -1.54974e-17)
(0.306363 0.0389099 3.49724e-17)
(0.160356 0.0361045 0)
(0.0446751 0.0203876 0)
(0.804969 0.057512 -1.8439e-17)
(0.77016 0.0637506 -5.94313e-17)
(0.728266 0.0711505 -2.13748e-17)
(0.677341 0.0798938 2.32037e-17)
(0.614563 0.0900097 2.53694e-17)
(0.536294 0.100996 -5.59478e-17)
(0.438581 0.111108 4.67382e-17)
(0.317535 0.116139 -8.78463e-17)
(0.170942 0.107501 -1.00601e-17)
(0.0508564 0.0609225 6.43158e-17)
(0.814077 0.0941506 1.85151e-17)
(0.780831 0.104443 -1.98925e-17)
(0.740551 0.116674 4.29288e-17)
(0.691523 0.131121 4.66077e-17)
(0.630914 0.147836 -5.0967e-17)
(0.55498 0.16598 -2.81033e-17)
(0.459472 0.18267 3.13115e-17)
(0.339804 0.190911 -5.29755e-17)
(0.192016 0.17619 8.09157e-17)
(0.0632478 0.100057 -1.52917e-16)
(0.828443 0.128813 3.70566e-17)
(0.797362 0.143014 0)
(0.759357 0.159885 0)
(0.713034 0.179771 -4.66428e-17)
(0.65552 0.202746 5.10053e-17)
(0.58291 0.227642 1.97696e-21)
(0.490515 0.25046 0)
(0.372687 0.261524 7.06973e-17)
(0.22305 0.240771 -6.07384e-17)
(0.0814938 0.136652 1.8838e-16)
(0.847854 0.160178 -3.69611e-17)
(0.819445 0.177999 0)
(0.784278 0.199201 8.56811e-17)
(0.741367 0.224148 0)
(0.687758 0.252947 5.08491e-17)
(0.619328 0.284105 5.60733e-17)
(0.530821 0.312548 0)
(0.415216 0.326052 1.40892e-16)
(0.263073 0.299494 -2.01709e-17)
(0.104968 0.169649 -7.03562e-17)
(0.871655 0.187272 1.82393e-21)
(0.846329 0.208305 -1.57861e-16)
(0.814479 0.233416 -2.45236e-21)
(0.775582 0.262944 0)
(0.726563 0.297029 -5.05156e-17)
(0.663031 0.333867 -5.56846e-17)
(0.579048 0.367352 0)
(0.465967 0.382874 -1.3981e-16)
(0.310709 0.350797 -1.60008e-16)
(0.132813 0.198127 2.32393e-17)
(0.898901 0.209415 6.88908e-22)
(0.876954 0.233191 1.0078e-21)
(0.848809 0.261723 1.68672e-16)
(0.814419 0.29529 -1.17891e-21)
(0.770534 0.334062 -9.99949e-17)
(0.712458 0.375923 -1.10184e-16)
(0.633478 0.413778 -3.06591e-17)
(0.523114 0.43081 3.45384e-17)
(0.364221 0.39349 1.18497e-16)
(0.163939 0.221345 2.29209e-16)
(0.92848 0.22625 -1.60898e-21)
(0.910044 0.252298 7.72225e-17)
(0.885883 0.283745 -1.66517e-16)
(0.856364 0.320795 -4.5158e-17)
(0.817986 0.363632 2.46594e-16)
(0.765746 0.40982 1.08633e-16)
(0.692097 0.451308 -1.20816e-16)
(0.584588 0.469271 0)
(0.421685 0.426953 3.88399e-17)
(0.197114 0.238871 -4.05184e-16)
(0.959194 0.237808 -1.11665e-21)
(0.943937 0.265578 -7.60265e-17)
(0.923884 0.299465 3.65022e-21)
(0.899445 0.339507 -8.88419e-17)
(0.866822 0.385856 9.69754e-17)
(0.820779 0.435747 5.33689e-17)
(0.752892 0.480215 5.93154e-17)
(0.648556 0.498614 -3.33476e-17)
(0.481415 0.451536 3.80455e-17)
(0.231114 0.25077 1.76156e-16)
(0.989045 0.245212 -6.95544e-17)
(0.976098 0.274079 -7.46254e-17)
(0.960382 0.310045 8.03962e-17)
(0.941214 0.352694 8.71164e-17)
(0.914708 0.401987 -1.90102e-16)
(0.875454 0.454754 0)
(0.813936 0.501146 0)
(0.712963 0.519022 -3.25974e-17)
(0.540896 0.467141 3.71398e-17)
(0.263993 0.256758 0)
(1.01804 0.257176 6.80231e-17)
(1.00651 0.287479 7.30638e-17)
(0.994929 0.324328 0)
(0.980306 0.367901 -8.5458e-17)
(0.959026 0.417361 0)
(0.925196 0.468869 -1.0282e-16)
(0.868037 0.512045 -5.71895e-17)
(0.768024 0.524786 -6.43806e-17)
(0.589895 0.4671 -1.47139e-16)
(0.290154 0.253305 1.70698e-16)
(1.05005 0.266794 1.6008e-21)
(1.04274 0.298061 -1.48593e-16)
(1.03543 0.335008 2.10549e-21)
(1.02516 0.378354 8.69427e-17)
(1.00826 0.426356 0)
(0.978011 0.474374 1.04677e-16)
(0.922196 0.511592 0)
(0.819309 0.516439 1.31225e-16)
(0.632047 0.451517 1.52149e-20)
(0.310543 0.240024 -1.74196e-16)
(1.08354 0.271508 7.01483e-17)
(1.08103 0.302861 -7.53643e-17)
(1.07806 0.339303 2.43886e-16)
(1.07193 0.381498 -8.82276e-17)
(1.05871 0.427013 -9.64279e-17)
(1.03081 0.470542 -5.31416e-17)
(0.974665 0.500985 2.61791e-21)
(0.867139 0.497557 6.66816e-17)
(0.669585 0.425897 2.67029e-16)
(0.32709 0.220915 4.4318e-17)
(1.11798 0.270539 -1.41967e-16)
(1.12012 0.301254 0)
(1.12135 0.336496 -4.15466e-21)
(1.11899 0.376633 8.93155e-17)
(1.10868 0.41872 2.44115e-16)
(1.08197 0.456989 5.38231e-17)
(1.02409 0.480316 1.19894e-16)
(0.910538 0.469022 -1.01387e-16)
(0.701843 0.392195 -1.93473e-16)
(0.339667 0.197752 1.79917e-16)
(1.1526 0.263604 7.16558e-17)
(1.15907 0.29302 7.69919e-17)
(1.16415 0.326368 -1.66158e-16)
(1.16498 0.363619 -4.51003e-17)
(1.15662 0.401448 -1.9725e-16)
(1.12976 0.433825 -1.63137e-16)
(1.06855 0.449877 -2.42326e-16)
(0.947509 0.431427 1.36672e-16)
(0.727036 0.351492 0)
(0.347579 0.171601 -2.04854e-16)
(1.18634 0.250496 1.08219e-16)
(1.19672 0.278019 0)
(1.20512 0.308852 0)
(1.20837 0.342533 0)
(1.20087 0.375487 0)
(1.17242 0.401609 1.09575e-16)
(1.10627 0.41055 1.22101e-16)
(0.976406 0.385992 0)
(0.74395 0.305273 0)
(0.350505 0.143572 -9.18389e-17)
(1.21811 0.231252 -3.62269e-17)
(1.23185 0.256362 -9.98117e-22)
(1.24288 0.284157 -4.20119e-17)
(1.24766 0.313751 4.56179e-17)
(1.23982 0.341453 -4.98933e-17)
(1.20833 0.361273 1.37596e-16)
(1.13577 0.363628 -3.06704e-17)
(0.996065 0.334343 6.9218e-17)
(0.75197 0.255285 -1.98333e-17)
(0.348467 0.114784 9.235e-17)
(1.24682 0.206174 7.25678e-17)
(1.26327 0.228456 -3.89892e-17)
(1.27616 0.252809 0)
(1.28146 0.277979 -4.56944e-17)
(1.27203 0.300301 0)
(1.23613 0.314067 -5.51342e-17)
(1.1559 0.310676 -3.07222e-17)
(1.00578 0.278292 3.46709e-17)
(0.750968 0.203324 0)
(0.341735 0.0862777 -1.15668e-17)
(1.27156 0.175794 -5.43656e-17)
(1.28998 0.19497 3.89455e-17)
(1.30388 0.215626 0)
(1.30869 0.236221 0)
(1.29654 0.253257 4.99169e-17)
(1.25507 0.261465 -2.75337e-17)
(1.16629 0.253408 -3.06844e-17)
(1.00567 0.219711 -6.92601e-17)
(0.741486 0.151163 3.96907e-17)
(0.330848 0.0590079 -5.19763e-17)
(1.29091 0.141027 5.41626e-17)
(1.31078 0.156861 -6.91034e-22)
(1.3251 0.173588 -2.09341e-17)
(1.32865 0.189499 0)
(1.31286 0.201412 -2.4859e-17)
(1.26487 0.204677 -1.3709e-17)
(1.16687 0.193225 3.81946e-17)
(0.995826 0.160223 8.6194e-18)
(0.723797 0.100468 -4.44477e-17)
(0.316058 0.0338459 5.17272e-17)
(1.02894 0.234162 -4.18745e-16)
(1.05799 0.241768 1.03579e-16)
(1.08766 0.245294 0)
(1.11809 0.243944 1.02454e-16)
(1.14877 0.237457 -2.9291e-23)
(1.17871 0.225645 -1.5664e-18)
(1.20696 0.208492 7.79222e-19)
(1.23259 0.186202 -5.00492e-17)
(1.25488 0.159163 4.98912e-17)
(1.27227 0.128143 -2.4698e-17)
(1.03752 0.220495 2.08831e-16)
(1.06395 0.225398 0)
(1.09063 0.226972 0)
(1.11786 0.224473 1.00717e-16)
(1.14535 0.217624 1.57469e-18)
(1.17221 0.20626 -7.82316e-19)
(1.19759 0.190353 7.78576e-19)
(1.22068 0.170051 4.88522e-17)
(1.2409 0.145657 -4.9475e-17)
(1.25671 0.117777 2.4685e-17)
(1.04562 0.208992 0)
(1.06932 0.211701 -1.03216e-16)
(1.09318 0.211399 1.0228e-16)
(1.11742 0.207686 -1.01473e-16)
(1.14192 0.200315 0)
(1.16586 0.189151 -7.82611e-19)
(1.18852 0.17417 -9.89421e-17)
(1.2092 0.15548 0)
(1.22742 0.133328 0)
(1.24173 0.108183 -2.47127e-17)
(1.05273 0.198226 0)
(1.0741 0.199111 9.26896e-22)
(1.09542 0.197294 -1.02197e-16)
(1.11697 0.1926 1.01434e-16)
(1.13869 0.184829 7.87354e-19)
(1.15992 0.173872 -1.01017e-16)
(1.18003 0.159711 -4.47458e-22)
(1.19844 0.142428 0)
(1.21475 0.122218 0)
(1.22763 0.0994414 0)
(1.05862 0.187987 -1.03823e-16)
(1.07798 0.187452 2.05886e-16)
(1.09712 0.184475 7.9775e-19)
(1.11632 0.179032 -1.02189e-16)
(1.13559 0.170979 -7.87366e-19)
(1.15438 0.160243 -1.00269e-16)
(1.17219 0.146817 1.50547e-16)
(1.18851 0.130765 -3.88695e-19)
(1.20305 0.112244 -4.92384e-17)
(1.21457 0.0915302 -2.4769e-17)
(1.06335 0.178219 2.07255e-16)
(1.08094 0.176615 -1.02807e-16)
(1.09819 0.172788 1.02029e-16)
(1.11536 0.166811 1.00567e-16)
(1.1325 0.158596 1.0236e-16)
(1.14917 0.148104 9.95194e-17)
(1.16494 0.135346 -4.99531e-17)
(1.1794 0.120377 -3.89023e-19)
(1.19231 0.103328 3.87749e-19)
(1.2026 0.0844152 2.47969e-17)
(1.06704 0.168902 -1.03837e-16)
(1.08305 0.16649 -1.02269e-16)
(1.09864 0.162057 -1.01946e-16)
(1.11406 0.155732 -1.01321e-16)
(1.12938 0.147469 -9.99992e-17)
(1.1442 0.13726 9.87698e-17)
(1.1582 0.12513 -4.92032e-17)
(1.17102 0.111132 0)
(1.1825 0.0953788 9.94531e-17)
(1.19166 0.0780436 0)
(1.06984 0.160029 0)
(1.08441 0.157005 1.02535e-16)
(1.09855 0.152154 -1.01863e-16)
(1.11245 0.14563 7.91265e-19)
(1.12619 0.137419 -1.02363e-16)
(1.13943 0.127531 -1.00372e-16)
(1.15189 0.116003 5.07964e-17)
(1.1633 0.10289 -4.98794e-17)
(1.17351 0.0882898 -9.95539e-17)
(1.18167 0.0723469 0)
(1.07184 0.151596 -1.03044e-16)
(1.08513 0.148112 0)
(1.09798 0.142987 1.0178e-16)
(1.11057 0.13638 1.02036e-16)
(1.12294 0.128296 -1.2256e-23)
(1.13481 0.11876 9.96218e-17)
(1.14596 0.107816 0)
(1.15614 0.0955186 4.99211e-17)
(1.16525 0.0819555 5.00219e-17)
(1.17254 0.0672504 -2.50759e-17)
(1.07317 0.143593 1.02852e-16)
(1.08531 0.139774 -1.02264e-16)
(1.09701 0.134485 1.01696e-16)
(1.10845 0.12788 -1.00416e-16)
(1.11964 0.11998 2.00005e-16)
(1.13034 0.110818 -9.8871e-17)
(1.14035 0.10044 -7.82457e-19)
(1.14948 0.0889001 -3.90336e-19)
(1.15764 0.0762778 -4.94884e-17)
(1.16417 0.0626812 2.49097e-17)
(1.07393 0.136011 0)
(1.08503 0.131955 1.0213e-16)
(1.09572 0.126585 -1.01613e-16)
(1.10615 0.120049 -7.90377e-19)
(1.11631 0.112373 -9.92162e-17)
(1.12599 0.103596 -7.84964e-19)
(1.13503 0.0937657 -7.8293e-19)
(1.14325 0.0829321 7.81339e-19)
(1.15059 0.0711689 4.99285e-17)
(1.15647 0.0585715 2.49381e-17)
(1.0742 0.128832 1.02867e-16)
(1.08438 0.124621 -3.98421e-19)
(1.09418 0.119236 0)
(1.10371 0.112815 0)
(1.11297 0.105391 7.87433e-19)
(1.12177 0.097004 -5.18249e-17)
(1.12996 0.0877 9.71675e-24)
(1.13741 0.0775271 5.04385e-17)
(1.14405 0.0665522 3.90465e-19)
(1.14936 0.0548603 -2.49663e-17)
(1.07406 0.12204 -1.02276e-16)
(1.08342 0.117738 -1.01861e-16)
(1.09243 0.112389 -1.01447e-16)
(1.10118 0.106118 -7.89784e-19)
(1.10965 0.0989636 9.94079e-24)
(1.11768 0.0909645 5.02715e-17)
(1.12514 0.0821653 7.83907e-19)
(1.13192 0.0726109 1.25829e-22)
(1.13795 0.0623618 0)
(1.14278 0.0514944 0)
(1.07359 0.115615 -1.02484e-16)
(1.08223 0.111276 2.03851e-16)
(1.09052 0.106 1.01364e-16)
(1.09858 0.0999054 0)
(1.10636 0.09303 -1.00006e-16)
(1.11372 0.0854129 4.95029e-17)
(1.12055 0.077096 0)
(1.12674 0.0681207 -5.05234e-17)
(1.13225 0.0585416 -2.46492e-17)
(1.13666 0.0484277 0)
(1.07285 0.109536 1.02294e-16)
(1.08084 0.105202 -1.0199e-16)
(1.08851 0.100031 0)
(1.09596 0.0941296 1.00228e-16)
(1.10313 0.0875379 1.00795e-16)
(1.10991 0.0802937 -1.00611e-16)
(1.11618 0.0724362 -4.94469e-17)
(1.12187 0.0640031 0)
(1.12692 0.0550441 2.50658e-17)
(1.13097 0.045621 0)
(1.07189 0.103782 1.01706e-16)
(1.0793 0.0994878 0)
(1.08642 0.0944441 0)
(1.09333 0.0887485 -1.0019e-16)
(1.09997 0.0824413 -8.14182e-24)
(1.10623 0.075559 4.87501e-17)
(1.11202 0.068138 5.1048e-17)
(1.11726 0.060213 -3.92314e-19)
(1.12192 0.0518285 1.96029e-19)
(1.12566 0.0430406 1.9594e-19)
(1.07076 0.0983335 -2.03035e-16)
(1.07766 0.094106 1.01327e-16)
(1.08429 0.0892067 7.89965e-19)
(1.09072 0.0837246 -7.88601e-19)
(1.09689 0.0776996 -5.03981e-17)
(1.1027 0.071167 0)
(1.10807 0.0641603 0)
(1.11292 0.0567114 5.02588e-17)
(1.11723 0.0488603 0)
(1.1207 0.0406579 0)
(1.06949 0.0931689 1.01725e-16)
(1.07594 0.0890304 -1.01589e-16)
(1.08214 0.0842883 7.89319e-19)
(1.08815 0.0790239 -1.02479e-16)
(1.0939 0.073277 5.11859e-17)
(1.09931 0.0670811 0)
(1.1043 0.0604674 -7.86321e-19)
(1.10882 0.0534649 -4.99081e-17)
(1.11283 0.04611 1.96428e-19)
(1.11606 0.0384484 1.96388e-19)
(1.06812 0.0882692 -1.01536e-16)
(1.07417 0.0842368 3.94773e-19)
(1.07999 0.0796609 -1.00951e-16)
(1.08562 0.0746162 1.00864e-16)
(1.091 0.0691416 7.87476e-19)
(1.09606 0.0632693 -7.87093e-19)
(1.10073 0.0570282 4.9569e-17)
(1.10495 0.0504447 7.86622e-19)
(1.10869 0.0435518 0)
(1.11172 0.0363911 0)
(1.06668 0.0836158 -3.9415e-19)
(1.07237 0.0797028 1.01323e-16)
(1.07785 0.0752991 1.00868e-16)
(1.08315 0.0704739 -1.01613e-16)
(1.08821 0.0652651 5.11864e-17)
(1.09296 0.0597033 0)
(1.09734 0.0538154 -5.03868e-17)
(1.10129 0.0476256 -3.9364e-19)
(1.1048 0.0411637 3.93654e-19)
(1.10765 0.0344678 0)
(1.06519 0.0791911 3.93808e-19)
(1.07057 0.0754074 -1.01191e-16)
(1.07575 0.0711799 -1.00786e-16)
(1.08075 0.0665726 1.00787e-16)
(1.08552 0.0616221 -1.00798e-16)
(1.08999 0.056358 0)
(1.09412 0.0508051 0)
(1.09784 0.0449855 -3.93973e-19)
(1.10115 0.0389265 -2.50225e-17)
(1.10384 0.0326628 2.5421e-17)
(1.06368 0.0749785 1.00189e-16)
(1.06878 0.0713315 -1.00272e-16)
(1.07369 0.0672822 1.00703e-16)
(1.07843 0.0628898 -5.11616e-17)
(1.08294 0.0581902 7.87495e-19)
(1.08717 0.0532113 0)
(1.09107 0.0479761 -5.04491e-17)
(1.09459 0.0425053 -3.94306e-19)
(1.09771 0.0368234 2.56397e-17)
(1.10027 0.0309624 -2.52528e-17)
(1.06215 0.0709625 0)
(1.06701 0.0674574 1.00534e-16)
(1.07168 0.0635867 -1.00621e-16)
(1.07618 0.0594058 5.11421e-17)
(1.08047 0.054949 4.9612e-17)
(1.08448 0.0502432 0)
(1.08818 0.0453099 4.96914e-17)
(1.09152 0.0401678 3.94644e-19)
(1.09449 0.0348397 1.97432e-19)
(1.09692 0.0293547 1.97514e-19)
(1.06064 0.0671286 3.9145e-19)
(1.06527 0.0637688 -3.92197e-19)
(1.06973 0.0600762 1.00538e-16)
(1.07402 0.0561023 7.86497e-19)
(1.07811 0.0518806 -5.03997e-17)
(1.08193 0.0474364 4.96701e-17)
(1.08545 0.0427898 -4.97221e-17)
(1.08863 0.0379582 2.40934e-17)
(1.09145 0.0329625 5.92897e-19)
(1.09378 0.0278293 -1.97741e-19)
(1.05914 0.0634634 9.96364e-17)
(1.06357 0.0602509 3.91685e-19)
(1.06784 0.0567347 0)
(1.07195 0.0529633 0)
(1.07585 0.0489686 4.78923e-24)
(1.0795 0.044775 -5.04755e-17)
(1.08286 0.0404012 1.00295e-16)
(1.0859 0.0358633 3.9533e-19)
(1.0886 0.0311803 1.97836e-19)
(1.09084 0.026377 1.28679e-17)
(1.05767 0.0599541 -9.94535e-17)
(1.06193 0.0568897 -3.91174e-19)
(1.06602 0.0535478 -5.01869e-17)
(1.06997 0.0499738 0)
(1.07371 0.0461986 5.03998e-17)
(1.0772 0.0422451 0)
(1.08043 0.038131 -4.97834e-17)
(1.08334 0.0338712 -2.65081e-17)
(1.08593 0.0294832 3.96075e-19)
(1.08808 0.0249899 1.29225e-23)
(1.05623 0.0565891 -1.00049e-16)
(1.06033 0.0536728 3.90663e-19)
(1.06428 0.0505024 5.01459e-17)
(1.06807 0.0471207 -7.85594e-19)
(1.07167 0.0435573 7.875e-19)
(1.07503 0.0398342 0)
(1.07813 0.0359676 -7.90698e-19)
(1.08093 0.0319716 3.95982e-19)
(1.08342 0.0278623 1.98242e-19)
(1.08549 0.0236607 -1.25007e-17)
(1.05484 0.0533575 9.90888e-17)
(1.0588 0.0505884 3.90154e-19)
(1.06261 0.0475865 -7.82885e-19)
(1.06627 0.0443919 1.57059e-18)
(1.06973 0.0410331 -7.87501e-19)
(1.07297 0.0375309 0)
(1.07596 0.0339006 -2.5318e-17)
(1.07866 0.0301552 0)
(1.08106 0.0263096 0)
(1.08307 0.0223833 1.27138e-17)
(1.05349 0.0502493 4.96475e-17)
(1.05733 0.0476261 0)
(1.06101 0.0447891 0)
(1.06455 0.0417765 -7.8499e-19)
(1.0679 0.0386153 -4.96124e-17)
(1.07104 0.0353252 0)
(1.07392 0.0319206 2.61253e-17)
(1.07653 0.0284138 -1.18995e-18)
(1.07885 0.0248181 3.97296e-19)
(1.08081 0.021152 -1.27284e-17)
(1.0522 0.0472551 -9.95005e-17)
(1.05592 0.0447758 3.89138e-19)
(1.0595 0.0421003 7.81602e-19)
(1.06293 0.0392645 -5.17895e-17)
(1.06618 0.0362941 1.02375e-16)
(1.06921 0.0332079 -7.9e-19)
(1.072 0.0300194 2.53493e-17)
(1.07453 0.0267398 -3.96986e-19)
(1.07679 0.0233817 1.98853e-19)
(1.07869 0.019962 1.99112e-19)
(1.05096 0.044366 4.90797e-17)
(1.05458 0.0420286 3.88632e-19)
(1.05806 0.0395109 0)
(1.06139 0.0368468 4.94164e-17)
(1.06455 0.0340609 -4.96123e-17)
(1.06749 0.0311709 2.52884e-17)
(1.07021 0.0281894 4.93664e-24)
(1.07267 0.0251268 -3.97323e-19)
(1.07486 0.0219947 3.98114e-19)
(1.07672 0.0188089 0)
(1.04978 0.041574 -3.85747e-19)
(1.05331 0.039376 3.88126e-19)
(1.0567 0.0370125 0)
(1.05995 0.0345153 -5.01814e-17)
(1.06302 0.0319078 7.87493e-19)
(1.06588 0.0292067 -5.13841e-17)
(1.06853 0.0264237 -2.53806e-17)
(1.07092 0.0235686 -2.5848e-17)
(1.07306 0.0206522 1.99263e-19)
(1.07487 0.0176888 1.99573e-19)
(1.04866 0.0388714 -4.96707e-17)
(1.0521 0.0368103 5.00031e-17)
(1.05541 0.0345973 0)
(1.05858 0.0322623 5.09457e-17)
(1.06158 0.0298275 -7.87495e-19)
(1.06438 0.0273085 2.53052e-17)
(1.06695 0.0247164 0)
(1.06929 0.0220601 2.5074e-17)
(1.07138 0.0193496 5.98401e-19)
(1.07316 0.0165983 -1.99804e-19)
(1.0476 0.036251 4.88115e-17)
(1.05097 0.0343243 3.8709e-19)
(1.05421 0.0322582 7.79043e-19)
(1.05731 0.030081 -7.83478e-19)
(1.06024 0.0278134 0)
(1.06297 0.0254702 2.53136e-17)
(1.06549 0.0230618 -2.6206e-17)
(1.06778 0.0205963 2.5892e-17)
(1.06982 0.018083 1.99674e-19)
(1.07157 0.0155342 1.30023e-17)
(1.0466 0.0337063 -4.91062e-17)
(1.04991 0.0319113 -4.94867e-17)
(1.05308 0.0299886 0)
(1.05612 0.0279648 0)
(1.05898 0.0258595 0)
(1.06166 0.0236863 -5.0644e-17)
(1.06413 0.0214549 7.94608e-19)
(1.06637 0.0191729 -2.67114e-17)
(1.06837 0.0168487 3.99758e-19)
(1.07009 0.0144937 -1.28171e-17)
(1.04567 0.0312309 -3.82913e-19)
(1.04891 0.0295649 3.86114e-19)
(1.05203 0.0277824 -7.77765e-19)
(1.05501 0.025908 7.8287e-19)
(1.05782 0.0239601 7.87483e-19)
(1.06045 0.0219515 -7.91576e-19)
(1.06287 0.0198911 2.46482e-17)
(1.06507 0.0177858 3.99019e-19)
(1.06704 0.0156434 4.00171e-19)
(1.06873 0.0134744 0)
(1.0448 0.0288189 4.85456e-17)
(1.04799 0.0272794 3.85613e-19)
(1.05106 0.0256338 2.48681e-17)
(1.05398 0.0239051 7.82562e-19)
(1.05675 0.0221103 -3.33612e-24)
(1.05933 0.0202612 -7.91838e-19)
(1.06171 0.0183662 0)
(1.06387 0.0164315 0)
(1.0658 0.0144642 1.28187e-17)
(1.06748 0.012474 0)
(1.044 0.0264647 3.81554e-19)
(1.04714 0.0250493 -3.85113e-19)
(1.05016 0.0235376 -2.56242e-17)
(1.05304 0.021951 3.21056e-24)
(1.05576 0.0203052 7.87478e-19)
(1.0583 0.0186111 2.53472e-17)
(1.06064 0.0168763 2.54747e-17)
(1.06277 0.0151066 -3.99696e-19)
(1.06467 0.0133084 -1.2431e-17)
(1.06633 0.0114904 0)
(1.04325 0.0241629 -3.80862e-19)
(1.04635 0.0228693 3.84614e-19)
(1.04933 0.0214888 -2.48273e-17)
(1.05217 0.020041 0)
(1.05485 0.0185404 0)
(1.05735 0.0169971 0)
(1.05966 0.0154179 -2.54904e-17)
(1.06176 0.0138081 -1.32013e-17)
(1.06364 0.0121734 4.01415e-19)
(1.06528 0.0105219 0)
(1.04258 0.0219087 -3.80172e-19)
(1.04564 0.0207346 3.84116e-19)
(1.04858 0.0194826 2.40317e-17)
(1.05138 0.0181706 3.06838e-24)
(1.05403 0.0168119 7.87468e-19)
(1.0565 0.0154155 0)
(1.05878 0.0139877 7.97066e-19)
(1.06085 0.0125332 1.1611e-17)
(1.06271 0.0110571 -1.24568e-17)
(1.06433 0.00956657 0)
(1.04196 0.0196971 0)
(1.04499 0.0186405 2.45516e-17)
(1.0479 0.0175147 2.47866e-17)
(1.05067 0.0163358 -7.8134e-19)
(1.05328 0.0151158 7.87463e-19)
(1.05572 0.0138629 0)
(1.05798 0.0125827 1.35585e-17)
(1.06003 0.0112793 -1.20216e-18)
(1.06187 0.00995726 1.30731e-17)
(1.06347 0.00862302 2.01673e-19)
(1.04141 0.0175235 -3.78798e-19)
(1.04441 0.0165827 -2.41367e-17)
(1.04729 0.0155808 -2.39923e-17)
(1.05003 0.0145325 -2.95433e-24)
(1.05262 0.0134485 -7.87457e-19)
(1.05503 0.012336 0)
(1.05726 0.0111999 -1.35669e-17)
(1.05929 0.0100439 4.01066e-19)
(1.06111 0.00887198 6.03999e-19)
(1.06271 0.00768977 -2.01908e-19)
(1.04092 0.0153836 3.78113e-19)
(1.04389 0.0145568 -3.82627e-19)
(1.04675 0.013677 0)
(1.04947 0.0127571 0)
(1.05203 0.0118066 0)
(1.05443 0.0108317 -1.26945e-17)
(1.05663 0.0098367 -1.27767e-17)
(1.05865 0.00882483 -4.01406e-19)
(1.06045 0.00779945 2.01543e-19)
(1.06203 0.00676549 2.02145e-19)
(1.04049 0.0132731 -3.77431e-19)
(1.04345 0.0125588 3.82133e-19)
(1.04628 0.0117994 1.31354e-17)
(1.04898 0.0110061 -1.32672e-17)
(1.05152 0.0101868 0)
(1.0539 0.00934714 2.53974e-17)
(1.05609 0.00849059 1.27846e-17)
(1.05808 0.00761991 6.02625e-18)
(1.05987 0.00673796 -6.25431e-18)
(1.06145 0.00584893 2.02382e-19)
(1.04013 0.0111878 -1.24328e-17)
(1.04306 0.0105849 1.25941e-17)
(1.04588 0.00994448 -1.23526e-17)
(1.04856 0.00927598 2.41836e-17)
(1.05109 0.00858617 7.87437e-19)
(1.05345 0.00787957 -2.54057e-17)
(1.05562 0.00715914 6.39625e-18)
(1.0576 0.00642713 -6.8356e-18)
(1.05938 0.00568588 6.86672e-18)
(1.06095 0.0049389 0)
(1.03982 0.00912379 1.24104e-17)
(1.04275 0.00863125 -3.81149e-19)
(1.04555 0.00810866 -7.71402e-19)
(1.04822 0.00756366 -1.16971e-17)
(1.05073 0.00700168 0)
(1.05307 0.00642637 1.2707e-17)
(1.05524 0.00584006 -7.20023e-18)
(1.05721 0.00524454 -5.2317e-18)
(1.05898 0.00464166 -6.06519e-19)
(1.06053 0.00403424 2.02857e-19)
(1.03958 0.00707719 -1.20127e-17)
(1.0425 0.0066943 -1.47656e-24)
(1.04529 0.00628863 7.70768e-19)
(1.04794 0.00586601 -1.559e-18)
(1.05044 0.00543055 1.57484e-18)
(1.05278 0.00498501 -7.15005e-18)
(1.05493 0.00453113 5.60364e-18)
(1.05689 0.00407026 3.62505e-18)
(1.05865 0.00360378 3.84529e-18)
(1.0602 0.00313386 -2.03096e-19)
(1.0394 0.00504416 1.16164e-17)
(1.04231 0.0047704 -1.17851e-17)
(1.04509 0.00448094 0)
(1.04774 0.00417977 0)
(1.05023 0.00386975 7.87409e-19)
(1.05255 0.00355273 5.56297e-18)
(1.0547 0.00322992 -6.40812e-18)
(1.05665 0.00290223 2.8219e-18)
(1.05841 0.00257062 -3.03893e-18)
(1.05996 0.00223659 2.03335e-19)
(1.03928 0.00302092 3.74048e-19)
(1.04219 0.00285589 -3.79675e-19)
(1.04496 0.00268201 3.07801e-18)
(1.0476 0.00250151 -7.78882e-19)
(1.05009 0.002316 3.14961e-18)
(1.05241 0.00212653 -2.38491e-18)
(1.05455 0.00193376 0)
(1.05649 0.00173819 -4.03474e-19)
(1.05825 0.00154038 4.05615e-19)
(1.05979 0.00134116 -8.14298e-19)
(1.03922 0.00100488 -3.74407e-19)
(1.04212 0.00094913 3.80265e-19)
(1.0449 0.000890811 -3.85561e-18)
(1.04754 0.000830565 7.80917e-19)
(1.05002 0.000768871 -1.57963e-18)
(1.05233 0.000706046 1.59546e-18)
(1.05447 0.000642281 0)
(1.05642 0.000577708 -4.0513e-19)
(1.05817 0.000512472 2.03686e-19)
(1.05971 0.00044682 1.02244e-18)
(0.974978 0.00549529 0)
(0.99575 0.0156317 0)
(1.00003 0.0231732 0)
(0.997554 0.031026 0)
(0.996136 0.0398787 0)
(0.995322 0.0493371 0)
(0.994315 0.0592716 0)
(0.993118 0.0697032 0)
(0.991846 0.0805943 0)
(0.990562 0.0918613 0)
(0.989331 0.103425 0)
(0.988248 0.115239 0)
(0.987441 0.1273 0)
(0.987068 0.139664 0)
(0.987327 0.152436 0)
(0.988458 0.165756 0)
(0.990762 0.179762 0)
(0.994656 0.194525 0)
(1.00076 0.209871 0)
(1.00915 0.224525 0)
(0.977779 0.00614675 0)
(0.996819 0.0157002 0)
(1.00018 0.0233607 0)
(0.998047 0.0315156 0)
(0.997077 0.0404826 0)
(0.996575 0.0499976 0)
(0.995904 0.0599922 0)
(0.995125 0.0704641 0)
(0.994342 0.0813535 0)
(0.993614 0.0925621 0)
(0.993013 0.103994 0)
(0.992641 0.115579 0)
(0.992629 0.127292 0)
(0.993138 0.139157 0)
(0.994366 0.151246 0)
(0.996555 0.163655 0)
(1 0.176461 0)
(1.00511 0.18962 0)
(1.01237 0.202691 0)
(1.02127 0.21413 0)
(0.980677 0.00655816 0)
(0.997527 0.0157171 0)
(1.00037 0.0234503 0)
(0.998597 0.0318206 0)
(0.997963 0.0408555 0)
(0.997739 0.0503873 0)
(0.997397 0.0603968 0)
(0.997018 0.0708603 0)
(0.996698 0.0816969 0)
(0.996492 0.0927938 0)
(0.996476 0.104038 0)
(0.996754 0.115338 0)
(0.997453 0.126643 0)
(0.998731 0.13795 0)
(1.00078 0.149298 0)
(1.00381 0.160744 0)
(1.00811 0.172316 0)
(1.01399 0.183907 0)
(1.02185 0.195014 0)
(1.03115 0.204243 0)
(0.983619 0.00673376 0)
(0.998073 0.0157652 0)
(1.00053 0.0235157 0)
(0.999137 0.0319747 0)
(0.998787 0.0410365 0)
(0.998821 0.0505635 0)
(0.998794 0.0605551 0)
(0.998792 0.0709731 0)
(0.998902 0.0817201 0)
(0.99918 0.092669 0)
(0.9997 0.10369 0)
(1.00056 0.114673 0)
(1.00189 0.125545 0)
(1.00383 0.136281 0)
(1.00656 0.146893 0)
(1.01027 0.157411 0)
(1.01519 0.167833 0)
(1.0216 0.178037 0)
(1.02978 0.187555 0)
(1.03927 0.195131 0)
(0.986575 0.00678906 0)
(0.998539 0.0157626 0)
(1.00065 0.0234935 0)
(0.999638 0.0319665 0)
(0.999547 0.0410155 0)
(0.999817 0.0505048 0)
(1.00008 0.0604386 0)