/*--------------------------------*- C++ -*----------------------------------*\
  =========                 |
  \\      /  F ield         | OpenFOAM: The Open Source CFD Toolbox
   \\    /   O peration     | Website:  https://openfoam.org
    \\  /    A nd           | Version:  6
     \\/     M anipulation  |
\*---------------------------------------------------------------------------*/
FoamFile
{
    version     2.0;
    format      ascii;
    class       surfaceScalarField;
    location    "1.05";
    object      phi;
}
// * * * * * * * * * * * * * * * * * * * * * * * * * * * * * * * * * * * * * //

dimensions      [0 3 -1 0 0 0 0];

internalField   nonuniform List<scalar> 
11030
(
0.000118621
3.5647e-07
0.000118715
-9.44651e-08
0.000118567
1.48415e-07
0.000118167
3.99375e-07
0.00011779
3.77765e-07
0.000117434
3.55215e-07
0.00011703
4.04088e-07
0.000116553
4.77598e-07
0.000115997
5.55886e-07
0.000115353
6.43833e-07
0.000114607
7.46096e-07
0.000113743
8.63975e-07
0.000112744
9.98705e-07
0.000111592
1.15237e-06
0.000110264
1.32747e-06
0.000108738
1.52655e-06
0.000106986
1.75139e-06
0.000104985
2.00148e-06
0.000102714
2.27078e-06
2.53821e-06
0.000100176
0.00011931
9.64352e-09
0.000119002
2.13228e-07
0.000118506
6.44724e-07
0.0001181
8.05348e-07
0.000117718
7.59788e-07
0.000117298
7.75051e-07
0.000116824
8.78451e-07
0.000116287
1.01464e-06
0.000115675
1.16759e-06
0.000114974
1.34453e-06
0.00011417
1.55076e-06
0.000113245
1.78844e-06
0.000112184
2.0603e-06
0.000110966
2.37044e-06
0.000109569
2.7237e-06
0.000107971
3.12492e-06
0.000106145
3.5775e-06
0.000104066
4.08021e-06
0.000101716
4.62086e-06
5.16168e-06
9.90927e-05
0.000118968
-5.17402e-08
0.00011883
3.51329e-07
0.000118447
1.02724e-06
0.000118015
1.23761e-06
0.00011759
1.18511e-06
0.000117133
1.23224e-06
0.000116617
1.39434e-06
0.000116032
1.59896e-06
0.00011537
1.83027e-06
0.000114615
2.09884e-06
0.000113755
2.41136e-06
0.000112772
2.77081e-06
0.000111651
3.18134e-06
0.000110373
3.64898e-06
0.000108916
4.18074e-06
0.000107257
4.78366e-06
0.000105372
5.46271e-06
0.000103236
6.21609e-06
0.000100831
7.02601e-06
7.8408e-06
9.81517e-05
0.000118819
-2.97624e-08
0.000118647
5.23165e-07
0.000118283
1.39174e-06
0.000117855
1.66506e-06
0.000117417
1.62311e-06
0.000116938
1.71086e-06
0.000116394
1.93924e-06
0.000115773
2.21964e-06
0.000115068
2.53528e-06
0.000114267
2.9e-06
0.000113356
3.32199e-06
0.000112322
3.80508e-06
0.000111148
4.35477e-06
0.000109818
4.97886e-06
0.000108313
5.68641e-06
0.00010661
6.48645e-06
0.000104687
7.38546e-06
0.000102522
8.3811e-06
0.000100098
9.45035e-06
1.05299e-05
9.74088e-05
0.000118676
6.5222e-08
0.000118452
7.4669e-07
0.000118086
1.75783e-06
0.000117664
2.08719e-06
0.000117222
2.0657e-06
0.000116728
2.20408e-06
0.00011616
2.50748e-06
0.000115508
2.87159e-06
0.000114765
3.27823e-06
0.000113921
3.74404e-06
0.000112965
4.27848e-06
0.000111884
4.8861e-06
0.000110665
5.5736e-06
0.000109293
6.35039e-06
0.000107752
7.2273e-06
0.000106024
8.2151e-06
0.000104088
9.32149e-06
0.000101925
1.05436e-05
9.95222e-05
1.18534e-05
1.31783e-05
9.68738e-05
0.000118515
2.46424e-07
0.000118238
1.02351e-06
0.000117879
2.11664e-06
0.00011747
2.49635e-06
0.000117027
2.50918e-06
0.00011652
2.71114e-06
0.000115927
3.09999e-06
0.000115242
3.55659e-06
0.000114459
4.06102e-06
0.000113571
4.63226e-06
0.000112569
5.28081e-06
0.000111443
6.01187e-06
0.000110183
6.83318e-06
0.000108778
7.75554e-06
0.000107214
8.79121e-06
0.000105477
9.9523e-06
0.000103551
1.12475e-05
0.000101422
1.26732e-05
9.90779e-05
1.4197e-05
1.57396e-05
9.65166e-05
0.000118298
5.63989e-07
0.000117976
1.34572e-06
0.000117672
2.42072e-06
0.000117297
2.87098e-06
0.000116852
2.95444e-06
0.000116324
3.23874e-06
0.000115699
3.72499e-06
0.000114972
4.28363e-06
0.000114141
4.8921e-06
0.000113202
5.57136e-06
0.00011215
6.33325e-06
0.000110978
7.18371e-06
0.00010968
8.13148e-06
0.000108247
9.18849e-06
0.00010667
1.0368e-05
0.000104939
1.16831e-05
0.000103044
1.31429e-05
0.000100973
1.47435e-05
9.8721e-05
1.64492e-05
1.81776e-05
9.6283e-05
0.000117923
1.17126e-06
0.000117597
1.67194e-06
0.000117477
2.54014e-06
0.000117172
3.17688e-06
0.000116708
3.41783e-06
0.000116142
3.80492e-06
0.000115468
4.39862e-06
0.000114683
5.06859e-06
0.00011379
5.78531e-06
0.00011279
6.57186e-06
0.00011168
7.44266e-06
0.000110459
8.40488e-06
0.000109122
9.46816e-06
0.000107666
1.06452e-05
0.000106084
1.19498e-05
0.000104372
1.33952e-05
0.000102524
1.49909e-05
0.000100534
1.67331e-05
9.83984e-05
1.85852e-05
2.04697e-05
9.61063e-05
0.000117016
2.60303e-06
0.000117037
1.65126e-06
0.000117393
2.18415e-06
0.000117132
3.43745e-06
0.000116588
3.96203e-06
0.000115951
4.44167e-06
0.000115205
5.14461e-06
0.000114341
5.933e-06
0.000113368
6.75754e-06
0.000112295
7.64565e-06
0.00011112
8.61693e-06
0.000109845
9.68009e-06
0.000108468
1.08452e-05
0.000106988
1.21252e-05
0.000105405
1.35333e-05
0.000103717
1.50822e-05
0.000101927
1.6781e-05
0.000100033
1.86273e-05
9.80329e-05
2.05855e-05
2.25789e-05
9.59237e-05
0.000115398
5.63266e-06
0.000116917
1.32499e-07
0.000117685
1.41571e-06
0.000117188
3.93439e-06
0.000116472
4.67818e-06
0.000115723
5.19034e-06
0.000114871
5.99683e-06
0.000113906
6.89764e-06
0.000112844
7.81954e-06
0.000111692
8.79823e-06
0.00011045
9.85881e-06
0.000109119
1.10108e-05
0.0001077
1.2264e-05
0.000106196
1.363e-05
0.000104608
1.51207e-05
0.000102945
1.67459e-05
0.000101214
1.85118e-05
9.94251e-05
2.0416e-05
9.75667e-05
2.24438e-05
9.56232e-05
2.45224e-05
8.96495e-05
1.05265e-05
7.89779e-05
1.06716e-05
6.81464e-05
1.08315e-05
5.71494e-05
1.0997e-05
4.60004e-05
1.1149e-05
3.47717e-05
1.12287e-05
2.36775e-05
1.10942e-05
1.3238e-05
1.04394e-05
4.5545e-06
8.68353e-06
4.5545e-06
8.86496e-05
2.09696e-05
7.80564e-05
2.12648e-05
6.73072e-05
2.15807e-05
5.63989e-05
2.19054e-05
4.53488e-05
2.21991e-05
3.42342e-05
2.23434e-05
2.32715e-05
2.20569e-05
1.29787e-05
2.07322e-05
4.4929e-06
1.71693e-05
9.0474e-06
8.77843e-05
3.13371e-05
7.72639e-05
3.17851e-05
6.65904e-05
3.22541e-05
5.57627e-05
3.27331e-05
4.48003e-05
3.31615e-05
3.37837e-05
3.336e-05
2.29339e-05
3.29068e-05
1.27721e-05
3.0894e-05
4.40927e-06
2.55322e-05
1.34567e-05
8.70968e-05
4.16491e-05
7.66322e-05
4.22497e-05
6.60189e-05
4.28675e-05
5.5256e-05
4.34959e-05
4.43634e-05
4.40541e-05
3.34236e-05
4.42998e-05
2.26613e-05
4.36691e-05
1.26005e-05
4.09548e-05
4.34082e-06
3.37919e-05
1.77975e-05
8.6597e-05
5.19259e-05
7.61683e-05
5.26784e-05
6.55959e-05
5.34399e-05
5.48776e-05
5.42142e-05
4.40325e-05
5.48992e-05
3.31446e-05
5.51877e-05
2.24429e-05
5.43708e-05
1.24567e-05
5.09409e-05
4.28079e-06
4.19678e-05
2.20783e-05
8.62582e-05
6.21843e-05
7.58472e-05
6.30894e-05
6.52971e-05
6.399e-05
5.46028e-05
6.49085e-05
4.37818e-05
6.57202e-05
3.29209e-05
6.60487e-05
2.22551e-05
6.50365e-05
1.2323e-05
6.08731e-05
4.21997e-06
5.00708e-05
2.62982e-05
8.60276e-05
7.24398e-05
7.56184e-05
7.34985e-05
6.50739e-05
7.45345e-05
5.43834e-05
7.5599e-05
4.35641e-05
7.65395e-05
3.27076e-05
7.69052e-05
2.20594e-05
7.56847e-05
1.21714e-05
7.07611e-05
4.14434e-06
5.80979e-05
3.04426e-05
8.58313e-05
8.27147e-05
7.54065e-05
8.39233e-05
6.48514e-05
8.50896e-05
5.41448e-05
8.63056e-05
4.33074e-05
8.73769e-05
3.24394e-05
8.77731e-05
2.1802e-05
8.63221e-05
1.19649e-05
8.05982e-05
4.03561e-06
6.60272e-05
3.44782e-05
8.5558e-05
9.30804e-05
7.50944e-05
9.43869e-05
6.451e-05
9.56739e-05
5.37703e-05
9.70453e-05
4.29061e-05
9.82412e-05
3.20284e-05
9.86508e-05
2.1416e-05
9.69345e-05
1.16568e-05
9.03574e-05
3.86808e-06
7.38159e-05
3.83463e-05
8.49542e-05
0.000103749
7.44641e-05
0.000104877
6.38352e-05
0.000106303
5.30696e-05
0.000107811
4.22052e-05
0.000109106
3.13573e-05
0.000109499
2.08167e-05
0.000107475
1.11817e-05
9.99923e-05
3.58977e-06
8.14079e-05
4.19361e-05
3.25488e-05
0.000109342
-3.81416e-05
2.6987e-05
0.000110439
2.15135e-05
0.000111776
1.61772e-05
0.000113147
1.11286e-05
0.000114154
6.63143e-06
0.000113996
3.05173e-06
0.000111055
7.64059e-07
0.00010228
-8.85329e-08
8.22605e-05
4.18475e-05
2.63911e-05
0.000114365
-3.14137e-05
2.13567e-05
0.000115473
1.64194e-05
0.000116714
1.16914e-05
0.000117875
7.3417e-06
0.000118504
3.63328e-06
0.000117704
9.03006e-07
0.000113785
-5.35993e-07
0.000103719
-6.30803e-07
8.23553e-05
4.12167e-05
2.02532e-05
0.000118849
-2.47376e-05
1.57661e-05
0.00011996
1.1406e-05
0.000121074
7.31433e-06
0.000121967
3.68359e-06
0.000122135
7.78404e-07
0.000120609
-1.09317e-06
0.000115657
-1.68501e-06
0.000104311
-1.05378e-06
8.17241e-05
4.01629e-05
1.4196e-05
0.000122803
-1.81494e-05
1.02756e-05
0.000123881
6.51934e-06
0.00012483
3.08929e-06
0.000125397
1.95862e-07
0.000125028
-1.8979e-06
0.000122703
-2.91595e-06
0.000116675
-2.68647e-06
0.000104081
-1.39069e-06
8.04283e-05
3.87722e-05
8.26516e-06
0.000126224
-1.16864e-05
4.92155e-06
0.000127224
1.78932e-06
0.000127962
-9.56502e-07
0.000128143
-3.09606e-06
0.000127168
-4.3749e-06
0.000123982
-4.55595e-06
0.000116856
-3.54804e-06
0.000103073
-1.65723e-06
7.85375e-05
3.7115e-05
2.49101e-06
0.00012911
-5.37719e-06
-2.67623e-07
0.000129983
-2.76003e-06
0.000130455
-4.80358e-06
0.000130186
-6.17707e-06
0.000128541
-6.64303e-06
0.000124448
-6.0114e-06
0.000116224
-4.27638e-06
0.000101338
-1.86204e-06
7.61231e-05
3.5253e-05
-3.10604e-06
0.000131456
7.59814e-07
-5.27122e-06
0.000132148
-7.11017e-06
0.000132294
-8.43711e-06
0.000131513
-9.03701e-06
0.000129141
-8.69797e-06
0.000124109
-7.28465e-06
0.000114811
-4.8793e-06
9.89331e-05
-2.01334e-06
7.32572e-05
3.32396e-05
-8.51438e-06
0.000133256
6.71499e-06
-1.00758e-05
0.00013371
-1.12478e-05
0.000133466
-1.18457e-05
0.000132111
-1.1668e-05
0.000128963
-1.05369e-05
0.000122978
-8.37891e-06
0.000112653
-5.36467e-06
9.59189e-05
-2.11848e-06
7.0011e-05
3.11212e-05
-1.37278e-05
0.000134499
1.24843e-05
-1.46714e-05
0.000134653
-1.51596e-05
0.000133954
-1.50145e-05
0.000131966
-1.40563e-05
0.000128005
-1.21508e-05
0.000121072
-9.29327e-06
0.000109795
-5.73942e-06
9.2365e-05
-2.18521e-06
6.64568e-05
2.89359e-05
-1.87361e-05
1.8072e-05
0.000135163
-1.90312e-05
0.000134948
-1.88054e-05
0.000133728
-1.78967e-05
0.000131057
-1.61579e-05
0.000126266
-1.35093e-05
0.000118424
-1.00186e-05
0.000106305
-6.01401e-06
8.83604e-05
-2.23073e-06
6.26735e-05
2.67052e-05
8.39942e-05
-3.87449e-05
-8.33908e-05
8.4821e-05
-3.22405e-05
8.58444e-05
-2.5761e-05
8.70078e-05
-1.93128e-05
8.82694e-05
-1.29481e-05
8.95817e-05
-6.68942e-06
9.08935e-05
-5.52005e-07
9.21543e-05
5.45415e-06
9.33166e-05
1.1322e-05
1.70635e-05
9.43251e-05
8.47661e-05
-3.91703e-05
-8.43407e-05
8.53836e-05
-3.2858e-05
8.61978e-05
-2.65752e-05
8.71657e-05
-2.02807e-05
8.82495e-05
-1.40319e-05
8.94083e-05
-7.84822e-06
9.05986e-05
-1.74235e-06
9.17772e-05
4.27556e-06
9.29025e-05
1.01968e-05
1.60373e-05
9.39287e-05
8.54188e-05
-3.93903e-05
-8.51989e-05
8.58488e-05
-3.3288e-05
8.6471e-05
-2.71974e-05
8.72547e-05
-2.10645e-05
8.81673e-05
-1.49445e-05
8.91744e-05
-8.85538e-06
9.02402e-05
-2.80806e-06
9.13283e-05
3.18739e-06
9.24037e-05
9.12146e-06
1.50111e-05
9.34299e-05
8.59807e-05
-3.94591e-05
-8.59119e-05
8.62482e-05
-3.35555e-05
8.66985e-05
-2.76477e-05
8.7311e-05
-2.1677e-05
8.80602e-05
-1.56936e-05
8.89187e-05
-9.71394e-06
8.9858e-05
-3.74732e-06
9.08489e-05
2.19652e-06
9.18623e-05
8.10801e-06
1.40038e-05
9.28697e-05
8.6445e-05
-3.94077e-05
-8.64964e-05
8.65762e-05
-3.36866e-05
8.68774e-05
-2.79489e-05
8.73368e-05
-2.21364e-05
8.7936e-05
-1.62928e-05
8.86546e-05
-1.04326e-05
8.94708e-05
-4.56352e-06
9.0362e-05
1.3053e-06
9.13052e-05
7.16487e-06
1.3031e-05
9.22779e-05
8.68124e-05
-3.92512e-05
-8.6969e-05
8.68263e-05
-3.37005e-05
8.69994e-05
-2.81219e-05
8.73254e-05
-2.24624e-05
8.77917e-05
-1.67591e-05
8.83835e-05
-1.10244e-05
8.90849e-05
-5.26492e-06
8.98791e-05
5.11129e-07
9.07483e-05
6.29565e-06
1.21037e-05
9.16756e-05
8.70913e-05
-3.90007e-05
-8.73418e-05
8.70025e-05
-3.36116e-05
8.7065e-05
-2.81844e-05
8.72758e-05
-2.26732e-05
8.7626e-05
-1.71093e-05
8.81054e-05
-1.15037e-05
8.87025e-05
-5.86207e-06
8.94054e-05
-1.91717e-07
9.02008e-05
5.5002e-06
1.12282e-05
9.10764e-05
8.72921e-05
-3.8666e-05
-8.76268e-05
8.71127e-05
-3.34322e-05
8.70791e-05
-2.81509e-05
8.71901e-05
-2.27842e-05
8.74395e-05
-1.73588e-05
8.78201e-05
-1.18843e-05
8.8324e-05
-6.36597e-06
8.89428e-05
-8.10538e-07
8.96672e-05
4.77579e-06
1.04069e-05
9.04885e-05
8.74252e-05
-3.82558e-05
-8.78354e-05
8.71656e-05
-3.31725e-05
8.70481e-05
-2.80334e-05
8.70723e-05
-2.28084e-05
8.7234e-05
-1.75205e-05
8.75281e-05
-1.21784e-05
8.79493e-05
-6.78717e-06
8.84919e-05
-1.35315e-06
8.91495e-05
4.11817e-06
9.64009e-06
8.99164e-05
8.75006e-05
-3.77782e-05
-8.79783e-05
8.71697e-05
-3.28415e-05
8.69783e-05
-2.78421e-05
8.69267e-05
-2.27568e-05
8.70119e-05
-1.76056e-05
8.72302e-05
-1.23967e-05
8.75783e-05
-7.13523e-06
8.80523e-05
-1.8272e-06
8.86482e-05
3.52234e-06
8.92601e-06
8.93623e-05
8.75274e-05
-3.72401e-05
-8.80655e-05
8.7133e-05
-3.24471e-05
8.68764e-05
-2.75855e-05
8.67581e-05
-2.26386e-05
8.67761e-05
-1.76236e-05
8.69279e-05
-1.25485e-05
8.72112e-05
-7.41856e-06
8.76238e-05
-2.23978e-06
8.8163e-05
2.98313e-06
8.26202e-06
8.8827e-05
8.75137e-05
-3.6648e-05
-8.81058e-05
8.70627e-05
-3.19962e-05
8.67483e-05
-2.72711e-05
8.6571e-05
-2.24613e-05
8.65297e-05
-1.75822e-05
8.66226e-05
-1.26414e-05
8.68485e-05
-7.64443e-06
8.7206e-05
-2.59725e-06
8.76935e-05
2.49556e-06
7.64499e-06
8.83106e-05
8.74667e-05
-3.60076e-05
-8.81071e-05
8.69653e-05
-3.14947e-05
8.65993e-05
-2.69051e-05
8.63697e-05
-2.22317e-05
8.62757e-05
-1.74882e-05
8.63163e-05
-1.26821e-05
8.6491e-05
-7.81907e-06
8.67989e-05
-2.90519e-06
8.72395e-05
2.05502e-06
7.07164e-06
8.78128e-05
8.73927e-05
-3.5324e-05
-8.80764e-05
8.68461e-05
-3.09481e-05
8.64341e-05
-2.6493e-05
8.61577e-05
-2.19553e-05
8.60168e-05
-1.73473e-05
8.60108e-05
-1.26761e-05
8.61395e-05
-7.9478e-06
8.64028e-05
-3.16847e-06
8.68005e-05
1.65735e-06
6.53878e-06
8.73333e-05
8.72971e-05
-3.46015e-05
-8.80196e-05
8.67101e-05
-3.03611e-05
8.62568e-05
-2.60398e-05
8.59385e-05
-2.16371e-05
8.57555e-05
-1.71642e-05
8.57076e-05
-1.26282e-05
8.5795e-05
-8.03518e-06
8.60178e-05
-3.39131e-06
8.63763e-05
1.29882e-06
6.0434e-06
8.68717e-05
8.71846e-05
-3.38443e-05
-8.79418e-05
8.65611e-05
-2.97377e-05
8.60708e-05
-2.55494e-05
8.57149e-05
-2.12812e-05
8.5494e-05
-1.69433e-05
8.54083e-05
-1.25425e-05
8.54583e-05
-8.08515e-06
8.56443e-05
-3.57738e-06
8.5967e-05
9.76139e-07
5.58269e-06
8.64277e-05
8.70589e-05
-3.30557e-05
-8.78474e-05
8.64028e-05
-2.90816e-05
8.58791e-05
-2.50257e-05
8.54892e-05
-2.08914e-05
8.52341e-05
-1.66881e-05
8.51142e-05
-1.24226e-05
8.51302e-05
-8.10113e-06
8.52827e-05
-3.72991e-06
8.55724e-05
6.86377e-07
5.15413e-06
8.6001e-05
8.69234e-05
-3.2239e-05
-8.77401e-05
8.62379e-05
-2.83961e-05
8.5684e-05
-2.44718e-05
8.52635e-05
-2.04709e-05
8.49774e-05
-1.6402e-05
8.48264e-05
-1.22716e-05
8.48114e-05
-8.08612e-06
8.49332e-05
-3.8517e-06
8.51926e-05
4.26935e-07
4.75539e-06
8.55913e-05
8.67808e-05
-3.13968e-05
-8.7623e-05
8.60688e-05
-2.7684e-05
8.54877e-05
-2.38908e-05
8.50394e-05
-2.00226e-05
8.47251e-05
-1.60877e-05
8.45458e-05
-1.20923e-05
8.45024e-05
-8.04278e-06
8.4596e-05
-3.94528e-06
8.48275e-05
1.95487e-07
4.38437e-06
8.51985e-05
8.66336e-05
-3.05317e-05
-8.74987e-05
8.58976e-05
-2.6948e-05
8.52918e-05
-2.3285e-05
8.48183e-05
-1.95491e-05
8.44783e-05
-1.57477e-05
8.42731e-05
-1.18871e-05
8.42038e-05
-7.97345e-06
8.42714e-05
-4.01287e-06
8.4477e-05
-1.00611e-08
4.03915e-06
8.48222e-05
8.64836e-05
-2.96459e-05
-8.73695e-05
8.57259e-05
-2.61902e-05
8.50978e-05
-2.26569e-05
8.46013e-05
-1.90526e-05
8.4238e-05
-1.53844e-05
8.40091e-05
-1.16582e-05
8.39159e-05
-7.88025e-06
8.39595e-05
-4.0565e-06
8.4141e-05
-1.91604e-07
3.71796e-06
8.44622e-05
8.63326e-05
-2.87413e-05
-8.72372e-05
8.55551e-05
-2.54128e-05
8.49067e-05
-2.20085e-05
8.43893e-05
-1.85352e-05
8.40046e-05
-1.49996e-05
8.3754e-05
-1.14076e-05
8.36388e-05
-7.76508e-06
8.36603e-05
-4.07797e-06
8.38196e-05
-3.50868e-07
3.41919e-06
8.41184e-05
8.61818e-05
-2.78198e-05
-8.71033e-05
8.53865e-05
-2.46175e-05
8.47196e-05
-2.13416e-05
8.41831e-05
-1.79988e-05
8.37789e-05
-1.45954e-05
8.35083e-05
-1.11371e-05
8.33729e-05
-7.62967e-06
8.33739e-05
-4.07895e-06
8.35124e-05
-4.89431e-07
3.14133e-06
8.37903e-05
8.60324e-05
-2.68828e-05
-8.69693e-05
8.52209e-05
-2.3806e-05
8.45372e-05
-2.06579e-05
8.39833e-05
-1.74449e-05
8.35611e-05
-1.41732e-05
8.32722e-05
-1.08482e-05
8.31181e-05
-7.47557e-06
8.31001e-05
-4.06094e-06
8.32194e-05
-6.0875e-07
2.88301e-06
8.34777e-05
8.58854e-05
-2.59319e-05
-8.68363e-05
8.50592e-05
-2.29798e-05
8.43601e-05
-1.99587e-05
8.37903e-05
-1.68751e-05
8.33516e-05
-1.37345e-05
8.30459e-05
-1.05424e-05
8.28745e-05
-7.30421e-06
8.28389e-05
-4.02534e-06
8.29403e-05
-7.10165e-07
2.64291e-06
8.31804e-05
8.57416e-05
-2.49683e-05
-8.67051e-05
8.4902e-05
-2.21402e-05
8.41889e-05
-1.92456e-05
8.36045e-05
-1.62907e-05
8.31507e-05
-1.32808e-05
8.28294e-05
-1.02211e-05
8.26421e-05
-7.11691e-06
8.25902e-05
-3.97342e-06
8.2675e-05
-7.94917e-07
2.41985e-06
8.2898e-05
8.56016e-05
-2.39932e-05
-8.65767e-05
8.47498e-05
-2.12885e-05
8.40239e-05
-1.85197e-05
8.34261e-05
-1.56929e-05
8.29585e-05
-1.28132e-05
8.26229e-05
-9.8855e-06
8.24208e-05
-6.91485e-06
8.23538e-05
-3.90637e-06
8.2423e-05
-8.64161e-07
2.21269e-06
8.26302e-05
8.5466e-05
-2.30077e-05
-8.64516e-05
8.46031e-05
-2.04256e-05
8.38655e-05
-1.77821e-05
8.32555e-05
-1.50829e-05
8.27751e-05
-1.23329e-05
8.24263e-05
-9.53665e-06
8.22106e-05
-6.69916e-06
8.21295e-05
-3.82526e-06
8.21843e-05
-9.18971e-07
2.02037e-06
8.23766e-05
8.53353e-05
-2.20126e-05
-8.63303e-05
8.44622e-05
-1.95525e-05
8.37139e-05
-1.70338e-05
8.30927e-05
-1.44616e-05
8.26006e-05
-1.18408e-05
8.22396e-05
-9.17561e-06
8.20112e-05
-6.47083e-06
8.19171e-05
-3.73112e-06
8.19585e-05
-9.60348e-07
1.84191e-06
8.21369e-05
8.52098e-05
-2.10089e-05
-8.62135e-05
8.43275e-05
-1.86703e-05
8.35694e-05
-1.62757e-05
8.29379e-05
-1.38301e-05
8.2435e-05
-1.13379e-05
8.20627e-05
-8.80332e-06
8.18227e-05
-6.23082e-06
8.17164e-05
-3.62489e-06
8.17453e-05
-9.89229e-07
1.67636e-06
8.19109e-05
8.50897e-05
-1.99973e-05
-8.61013e-05
8.41991e-05
-1.77796e-05
8.3432e-05
-1.55086e-05
8.2791e-05
-1.31891e-05
8.22782e-05
-1.08251e-05
8.18955e-05
-8.42064e-06
8.16447e-05
-5.98e-06
8.15273e-05
-3.50743e-06
8.15445e-05
-1.00649e-06
1.52285e-06
8.1698e-05
8.49755e-05
-1.89786e-05
-8.59942e-05
8.40771e-05
-1.68813e-05
8.33019e-05
-1.47334e-05
8.26523e-05
-1.25394e-05
8.21303e-05
-1.03031e-05
8.17381e-05
-8.02839e-06
8.14772e-05
-5.71918e-06
8.13494e-05
-3.37957e-06
8.13558e-05
-1.01295e-06
1.38056e-06
8.14981e-05
8.48672e-05
-1.79535e-05
-8.58923e-05
8.39618e-05
-1.5976e-05
8.31792e-05
-1.39507e-05
8.25215e-05
-1.18818e-05
8.19912e-05
-9.7728e-06
8.15901e-05
-7.62731e-06
8.13201e-05
-5.44913e-06
8.11826e-05
-3.24207e-06
8.1179e-05
-1.00939e-06
1.24869e-06
8.13109e-05
8.47649e-05
-1.69225e-05
-8.57959e-05
8.38533e-05
-1.50643e-05
8.30637e-05
-1.31612e-05
8.23988e-05
-1.12169e-05
8.18608e-05
-9.23475e-06
8.14516e-05
-7.2181e-06
8.1173e-05
-5.17053e-06
8.10266e-05
-3.09565e-06
8.10137e-05
-9.96525e-07
1.12652e-06
8.11359e-05
8.46689e-05
-1.58861e-05
-8.57052e-05
8.37514e-05
-1.41469e-05
8.29557e-05
-1.23655e-05
8.22842e-05
-1.05453e-05
8.1739e-05
-8.68961e-06
8.13223e-05
-6.8014e-06
8.10358e-05
-4.88406e-06
8.08812e-05
-2.94098e-06
8.08597e-05
-9.7505e-07
1.01333e-06
8.09729e-05
8.45791e-05
-1.4845e-05
-8.56202e-05
8.36564e-05
-1.32242e-05
8.28551e-05
-1.15641e-05
8.21774e-05
-9.86771e-06
8.16258e-05
-8.13798e-06
8.12022e-05
-6.37782e-06
8.09085e-05
-4.59034e-06
8.07462e-05
-2.7787e-06
8.07168e-05
-9.45608e-07
9.08473e-07
8.08216e-05
8.44956e-05
-1.37996e-05
-8.5541e-05
8.35683e-05
-1.22969e-05
8.27617e-05
-1.07576e-05
8.20785e-05
-9.18453e-06
8.1521e-05
-7.58041e-06
8.10911e-05
-5.94793e-06
8.07907e-05
-4.28995e-06
8.06214e-05
-2.6094e-06
8.05846e-05
-9.08818e-07
8.11305e-07
8.06818e-05
8.44185e-05
-1.27504e-05
-8.54677e-05
8.34869e-05
-1.13653e-05
8.26757e-05
-9.94639e-06
8.19875e-05
-8.4963e-06
8.14245e-05
-7.01744e-06
8.09888e-05
-5.51227e-06
8.06823e-05
-3.98344e-06
8.05066e-05
-2.43365e-06
8.0463e-05
-8.65261e-07
7.21226e-07
8.05531e-05
8.43477e-05
-1.16978e-05
-8.54004e-05
8.34123e-05
-1.04298e-05
8.25969e-05
-9.13102e-06
8.19041e-05
-7.80352e-06
8.13363e-05
-6.44954e-06
8.08953e-05
-5.07134e-06
8.05832e-05
-3.67133e-06
8.04016e-05
-2.252e-06
8.03518e-05
-8.15495e-07
6.37658e-07
8.04354e-05
8.42833e-05
-1.06421e-05
-8.53389e-05
8.33445e-05
-9.49103e-06
8.25253e-05
-8.3119e-06
8.18284e-05
-7.10663e-06
8.12561e-05
-5.87719e-06
8.08104e-05
-4.62563e-06
8.04932e-05
-3.35413e-06
8.03061e-05
-2.06495e-06
8.02507e-05
-7.60051e-07
5.60049e-07
8.03283e-05
8.42251e-05
-9.58375e-06
-8.52834e-05
8.32833e-05
-8.54924e-06
8.24608e-05
-7.48945e-06
8.17603e-05
-6.40605e-06
8.11839e-05
-5.30083e-06
8.07339e-05
-4.17559e-06
8.0412e-05
-3.03231e-06
8.02201e-05
-1.873e-06
8.01595e-05
-6.99442e-07
4.87865e-07
8.02317e-05
8.41731e-05
-8.52315e-06
-8.52337e-05
8.32287e-05
-7.60485e-06
8.24033e-05
-6.66405e-06
8.16995e-05
-5.70221e-06
8.11196e-05
-4.72088e-06
8.06656e-05
-3.72168e-06
8.03397e-05
-2.70632e-06
8.01433e-05
-1.67662e-06
8.0078e-05
-6.34161e-07
4.20591e-07
8.01453e-05
8.41273e-05
-7.46065e-06
-8.51898e-05
8.31807e-05
-6.65824e-06
8.23528e-05
-5.83611e-06
8.16461e-05
-4.99551e-06
8.1063e-05
-4.13777e-06
8.06056e-05
-3.26431e-06
8.02759e-05
-2.37662e-06
8.00755e-05
-1.47628e-06
8.00061e-05
-5.64688e-07
3.57724e-07
8.00689e-05
8.40876e-05
-6.3966e-06
-8.51516e-05
8.31391e-05
-5.70977e-06
8.2309e-05
-5.006e-06
8.15998e-05
-4.28633e-06
8.1014e-05
-3.5519e-06
8.05536e-05
-2.80389e-06
8.02206e-05
-2.04362e-06
8.00167e-05
-1.27242e-06
7.99435e-05
-4.91488e-07
2.98772e-07
8.00024e-05
8.40539e-05
-5.33138e-06
-8.51191e-05
8.31039e-05
-4.75981e-06
8.2272e-05
-4.17409e-06
8.15607e-05
-3.57505e-06
8.09725e-05
-2.96364e-06
8.05094e-05
-2.34085e-06
8.01736e-05
-1.70775e-06
7.99666e-05
-1.06547e-06
7.98902e-05
-4.15025e-07
2.43253e-07
7.99457e-05
8.40261e-05
-4.26534e-06
-8.50921e-05
8.3075e-05
-3.80873e-06
8.22416e-05
-3.34075e-06
8.15286e-05
-2.86205e-06
8.09384e-05
-2.37339e-06
8.04731e-05
-1.87556e-06
8.01348e-05
-1.36942e-06
7.99252e-05
-8.55882e-07
7.98459e-05
-3.35754e-07
1.90682e-07
7.98985e-05
8.40041e-05
-3.19885e-06
-8.50706e-05
8.30522e-05
-2.85688e-06
8.22178e-05
-2.50633e-06
8.15034e-05
-2.14769e-06
8.09116e-05
-1.78152e-06
8.04444e-05
-1.40842e-06
8.01041e-05
-1.02905e-06
7.98923e-05
-6.44084e-07
7.98106e-05
-2.54136e-07
1.40573e-07
7.98608e-05
8.39879e-05
-2.13225e-06
-8.50545e-05
8.30356e-05
-1.9046e-06
8.22004e-05
-1.67118e-06
8.14851e-05
-1.43232e-06
8.08919e-05
-1.1884e-06
8.04234e-05
-9.39833e-07
8.00814e-05
-6.87055e-07
7.98678e-05
-4.30523e-07
7.97843e-05
-1.70641e-07
9.24313e-08
7.98324e-05
8.39773e-05
-1.06587e-06
-8.50437e-05
8.30249e-05
-9.52213e-07
8.21894e-05
-8.35626e-07
8.14734e-05
-7.16295e-07
8.08794e-05
-5.94422e-07
8.04098e-05
-4.70211e-07
8.00666e-05
-3.43882e-07
7.98517e-05
-2.15663e-07
7.97668e-05
-8.57566e-08
4.57498e-08
7.98135e-05
8.39724e-05
-8.50382e-05
8.30202e-05
8.21845e-05
8.14682e-05
8.08738e-05
8.04036e-05
8.00597e-05
7.98441e-05
7.97583e-05
7.98041e-05
8.3688e-05
3.65382e-06
8.26008e-05
1.21968e-06
8.2076e-05
1.94048e-06
8.22565e-05
3.75388e-06
8.23027e-05
4.63197e-06
8.22026e-05
5.29046e-06
8.20887e-05
6.11072e-06
8.19787e-05
7.00765e-06
8.18621e-05
7.9361e-06
8.17423e-05
8.9181e-06
8.16283e-05
9.97277e-06
8.15296e-05
1.11095e-05
8.14565e-05
1.23371e-05
8.14215e-05
1.36651e-05
8.14399e-05
1.51023e-05
8.15303e-05
1.66555e-05
8.17159e-05
1.83262e-05
8.20287e-05
2.01032e-05
8.25351e-05
2.19374e-05
2.36667e-05
8.33414e-05
2.10925e-06
8.27502e-05
1.8109e-06
8.23093e-05
2.3813e-06
8.23761e-05
3.68712e-06
8.24054e-05
4.60269e-06
8.2339e-05
5.35686e-06
8.22616e-05
6.18813e-06
8.219e-05
7.07925e-06
8.21188e-05
8.00727e-06
8.20515e-05
8.98537e-06
8.19966e-05
1.00277e-05
8.19632e-05
1.11429e-05
8.19618e-05
1.23384e-05
8.20052e-05
1.36217e-05
8.21088e-05
1.49987e-05
8.22914e-05
1.64729e-05
8.25762e-05
1.80414e-05
8.29925e-05
1.9687e-05
8.3576e-05
2.13539e-05
2.2902e-05
8.25606e-05
1.38354e-06
8.25012e-05
1.87037e-06
8.23198e-05
2.5627e-06
8.23627e-05
3.64414e-06
8.24082e-05
4.55723e-06
8.23959e-05
5.36914e-06
8.23686e-05
6.2154e-06
8.23434e-05
7.10445e-06
8.23216e-05
8.02915e-06
8.23079e-05
8.99907e-06
8.23106e-05
1.0025e-05
8.23389e-05
1.11146e-05
8.24034e-05
1.22739e-05
8.25165e-05
1.35085e-05
8.2693e-05
1.48222e-05
8.29503e-05
1.62155e-05
8.33088e-05
1.7683e-05
8.37904e-05
1.92053e-05
8.44156e-05
2.07288e-05
2.21187e-05
8.22107e-05
1.03043e-06
8.22561e-05
1.82503e-06
8.22218e-05
2.59698e-06
8.22912e-05
3.57471e-06
8.23643e-05
4.4842e-06
8.24017e-05
5.33176e-06
8.24251e-05
6.1919e-06
8.24485e-05
7.08107e-06
8.24766e-05
8.00112e-06
8.25153e-05
8.96028e-06
8.25731e-05
9.9673e-06
8.2659e-05
1.10287e-05
8.27833e-05
1.21496e-05
8.29581e-05
1.33338e-05
8.31969e-05
1.45834e-05
8.35153e-05
1.58971e-05
8.39305e-05
1.72678e-05
8.446e-05
1.86758e-05
8.51182e-05
2.00706e-05
2.1325e-05
8.20374e-05
8.67984e-07
8.20997e-05
1.76275e-06
8.21321e-05
2.56462e-06
8.22173e-05
3.48948e-06
8.23098e-05
4.39171e-06
8.23848e-05
5.2567e-06
8.24515e-05
6.12522e-06
8.25192e-05
7.01341e-06
8.25935e-05
7.92686e-06
8.26808e-05
8.87297e-06
8.2789e-05
9.85903e-06
8.29271e-05
1.08906e-05
8.31048e-05
1.19719e-05
8.33332e-05
1.31054e-05
8.36248e-05
1.42919e-05
8.39932e-05
1.55288e-05
8.44528e-05
1.68081e-05
8.50177e-05
1.81109e-05
8.56983e-05
1.939e-05
2.05268e-05
8.19622e-05
7.95639e-07
8.20173e-05
1.70765e-06
8.20728e-05
2.50919e-06
8.21627e-05
3.39952e-06
8.22656e-05
4.28886e-06
8.23655e-05
5.15679e-06
8.24648e-05
6.02596e-06
8.25689e-05
6.90929e-06
8.26828e-05
7.81294e-06
8.28125e-05
8.7433e-06
8.29651e-05
9.70642e-06
8.31488e-05
1.07069e-05
8.33727e-05
1.1748e-05
8.36468e-05
1.28313e-05
8.39822e-05
1.39564e-05
8.43908e-05
1.51202e-05
8.48847e-05
1.63142e-05
8.54752e-05
1.75204e-05
8.617e-05
1.86953e-05
1.97278e-05
8.19379e-05
7.61558e-07
8.19828e-05
1.66269e-06
8.2043e-05
2.44901e-06
8.21321e-05
3.3104e-06
8.22392e-05
4.18184e-06
8.2354e-05
5.042e-06
8.24759e-05
5.90398e-06
8.2608e-05
6.77725e-06
8.27538e-05
7.66707e-06
8.29186e-05
8.57858e-06
8.31084e-05
9.5166e-06
8.33305e-05
1.04848e-05
8.35931e-05
1.14854e-05
8.39051e-05
1.25193e-05
8.42761e-05
1.35854e-05
8.47163e-05
1.46799e-05
8.52359e-05
1.57947e-05
8.58439e-05
1.69124e-05
8.65464e-05
1.79928e-05
1.89323e-05
8.19369e-05
7.41905e-07
8.19756e-05
1.62399e-06
8.20353e-05
2.38932e-06
8.2122e-05
3.22369e-06
8.22301e-05
4.07372e-06
8.23534e-05
4.9187e-06
8.24906e-05
5.76682e-06
8.2643e-05
6.62484e-06
8.28134e-05
7.49665e-06
8.30059e-05
8.38611e-06
8.32257e-05
9.29683e-06
8.3479e-05
1.02315e-05
8.37729e-05
1.11915e-05
8.41151e-05
1.21771e-05
8.4514e-05
1.31865e-05
8.49781e-05
1.42158e-05
8.55159e-05
1.52568e-05
8.61348e-05
1.62935e-05
8.68392e-05
1.72884e-05
1.81447e-05
8.1946e-05
7.26455e-07
8.19825e-05
1.58743e-06
8.20415e-05
2.33041e-06
8.21263e-05
3.13881e-06
8.22347e-05
3.96539e-06
8.2363e-05
4.79038e-06
8.25102e-05
5.61962e-06
8.26771e-05
6.45795e-06
8.28657e-05
7.30801e-06
8.30794e-05
8.17247e-06
8.33224e-05
9.05384e-06
8.35999e-05
9.95387e-06
8.39181e-05
1.08733e-05
8.42836e-05
1.18116e-05
8.47033e-05
1.27668e-05
8.51845e-05
1.37346e-05
8.57341e-05
1.47072e-05
8.6358e-05
1.56695e-05
8.70595e-05
1.6587e-05
1.73689e-05
8.19589e-05
7.11151e-07
8.19959e-05
1.55041e-06
8.20551e-05
2.27123e-06
8.21394e-05
3.05451e-06
8.22482e-05
3.85657e-06
8.23799e-05
4.65868e-06
8.2534e-05
5.46556e-06
8.27111e-05
6.28085e-06
8.29129e-05
7.10616e-06
8.31422e-05
7.9432e-06
8.34025e-05
8.79353e-06
8.36982e-05
9.65812e-06
8.40345e-05
1.05371e-05
8.44168e-05
1.14293e-05
8.4851e-05
1.23326e-05
8.53432e-05
1.32424e-05
8.5899e-05
1.41515e-05
8.6523e-05
1.50455e-05
8.72174e-05
1.58926e-05
1.66079e-05
8.19729e-05
6.94645e-07
8.20116e-05
1.51172e-06
8.2072e-05
2.21085e-06
8.21569e-05
2.9696e-06
8.22668e-05
3.74668e-06
8.24012e-05
4.52428e-06
8.25601e-05
5.3066e-06
8.27445e-05
6.09652e-06
8.29557e-05
6.89492e-06
8.31962e-05
7.70275e-06
8.34689e-05
8.52083e-06
8.37775e-05
9.34947e-06
8.41264e-05
1.01882e-05
8.452e-05
1.10357e-05
8.49634e-05
1.18892e-05
8.54613e-05
1.27445e-05
8.60184e-05
1.35944e-05
8.66382e-05
1.44257e-05
8.73221e-05
1.52087e-05
1.58645e-05
8.19868e-05
6.76702e-07
8.20276e-05
1.47098e-06
8.20897e-05
2.14873e-06
8.2176e-05
2.88332e-06
8.22874e-05
3.63524e-06
8.24242e-05
4.38748e-06
8.25869e-05
5.14394e-06
8.27764e-05
5.90703e-06
8.29942e-05
6.67712e-06
8.32423e-05
7.45458e-06
8.35235e-05
8.23969e-06
8.38407e-05
9.03223e-06
8.41976e-05
9.83133e-06
8.45979e-05
1.06353e-05
8.50458e-05
1.14413e-05
8.55451e-05
1.22452e-05
8.60994e-05
1.304e-05
8.67115e-05
1.38136e-05
8.73819e-05
1.45383e-05
1.51407e-05
8.20003e-05
6.57491e-07
8.2043e-05
1.42828e-06
8.2107e-05
2.08474e-06
8.2195e-05
2.79535e-06
8.23082e-05
3.52205e-06
8.24471e-05
4.24852e-06
8.26126e-05
4.97844e-06
8.28057e-05
5.7139e-06
8.3028e-05
6.45489e-06
8.32812e-05
7.2014e-06
8.35676e-05
7.95327e-06
8.38899e-05
8.70992e-06
8.42511e-05
9.47016e-06
8.46543e-05
1.02321e-05
8.51028e-05
1.09928e-05
8.55998e-05
1.17482e-05
8.61481e-05
1.24918e-05
8.67497e-05
1.32121e-05
8.74044e-05
1.38836e-05
1.4438e-05
8.20132e-05
6.37287e-07
8.20575e-05
1.38394e-06
8.21232e-05
2.01902e-06
8.22129e-05
2.70568e-06
8.23278e-05
3.40717e-06
8.24686e-05
4.10771e-06
8.26362e-05
4.81081e-06
8.28318e-05
5.51828e-06
8.30569e-05
6.22988e-06
8.3313e-05
6.94528e-06
8.36022e-05
7.66405e-06
8.39268e-05
8.38532e-06
8.42893e-05
9.10768e-06
8.46922e-05
9.82908e-06
8.51384e-05
1.05467e-05
8.56302e-05
1.12564e-05
8.61698e-05
1.19522e-05
8.67585e-05
1.26234e-05
8.73958e-05
1.32463e-05
1.37574e-05
8.20254e-05
6.1636e-07
8.2071e-05
1.33831e-06
8.21382e-05
1.95185e-06
8.22293e-05
2.61456e-06
8.23456e-05
3.29083e-06
8.24879e-05
3.96545e-06
8.2657e-05
4.64169e-06
8.28541e-05
5.32115e-06
8.30806e-05
6.0034e-06
8.3338e-05
6.6879e-06
8.36281e-05
7.374e-06
8.39527e-05
8.06064e-06
8.43141e-05
8.74628e-06
8.47144e-05
9.4288e-06
8.51557e-05
1.01054e-05
8.564e-05
1.07721e-05
8.61688e-05
1.14233e-05
8.67431e-05
1.20491e-05
8.73618e-05
1.26276e-05
1.30997e-05
8.2037e-05
5.9494e-07
8.20835e-05
1.29176e-06
8.21518e-05