/*--------------------------------*- C++ -*----------------------------------*\
  =========                 |
  \\      /  F ield         | OpenFOAM: The Open Source CFD Toolbox
   \\    /   O peration     | Website:  https://openfoam.org
    \\  /    A nd           | Version:  6
     \\/     M anipulation  |
\*---------------------------------------------------------------------------*/
FoamFile
{
    version     2.0;
    format      ascii;
    class       volVectorField;
    location    "1.05";
    object      U;
}
// * * * * * * * * * * * * * * * * * * * * * * * * * * * * * * * * * * * * * //

dimensions      [0 1 -1 0 0 0 0];

internalField   nonuniform List<vector> 
5600
(
(1.9059 0.0053997 3.73897e-19)
(1.2193 0.00615821 -6.42831e-18)
(0.974029 0.00558808 6.41395e-18)
(1.01089 0.00435898 0)
(1.04138 0.00387132 0)
(1.03692 0.00416912 0)
(1.02712 0.00464487 -1.1968e-17)
(1.02017 0.00510082 1.19409e-17)
(1.01378 0.00560749 0)
(1.00652 0.006214 0)
(0.998304 0.00692248 0)
(0.989197 0.00773431 0)
(0.979088 0.00866131 0)
(0.967819 0.00971987 -2.35621e-17)
(0.955225 0.0109276 2.35093e-17)
(0.941126 0.0123023 -4.69147e-17)
(0.925323 0.0138569 4.68101e-17)
(0.907609 0.0155886 0)
(0.887779 0.0174554 -3.64092e-19)
(0.865671 0.0193196 0)
(1.91785 0.00968111 -3.68685e-19)
(1.21372 0.0130219 6.33941e-18)
(0.97352 0.013306 -6.3276e-18)
(1.01401 0.0121853 0)
(1.04357 0.0118373 0)
(1.03822 0.012572 2.44334e-17)
(1.02832 0.013701 2.97267e-22)
(1.02145 0.0149617 -7.37418e-19)
(1.0151 0.0164283 1.40375e-22)
(1.00787 0.0181669 -2.35136e-17)
(0.999725 0.0201917 0)
(0.990725 0.0225189 -4.75821e-17)
(0.980755 0.0251814 4.67614e-17)
(0.969663 0.0282225 0)
(0.95729 0.0316906 0)
(0.943469 0.0356342 0)
(0.92801 0.0400881 0)
(0.910716 0.0450405 -4.63257e-17)
(0.891386 0.0503681 4.65999e-17)
(0.86977 0.0557164 4.54618e-17)
(1.93234 0.010441 0)
(1.21153 0.0198322 0)
(0.971701 0.0220308 0)
(1.01544 0.0201466 0)
(1.04545 0.0196072 2.34139e-17)
(1.03991 0.0208558 -2.41098e-17)
(1.03017 0.0226736 -1.45905e-18)
(1.02357 0.0247082 -7.28453e-19)
(1.01744 0.0271044 2.32763e-17)
(1.01042 0.0299567 -2.17894e-17)
(1.00253 0.0332832 -1.45049e-18)
(0.993821 0.0371096 4.70721e-17)
(0.984196 0.0414879 -4.77259e-17)
(0.973517 0.0464857 1.44412e-18)
(0.961646 0.0521789 4.61448e-17)
(0.948434 0.0586437 -9.35944e-17)
(0.933713 0.0659343 -1.43842e-18)
(0.917301 0.0740297 4.59428e-17)
(0.899 0.082728 -1.43363e-18)
(0.878483 0.0914709 -7.16138e-19)
(1.95015 0.0126222 0)
(1.21069 0.0255462 -1.44345e-18)
(0.969294 0.0290256 0)
(1.01615 0.0269653 0)
(1.04718 0.0265915 0)
(1.04182 0.0284803 0)
(1.03247 0.0310682 1.43759e-18)
(1.02634 0.0339415 2.44153e-17)
(1.02065 0.0373071 -2.29565e-17)
(1.01406 0.04129 -1.43339e-18)
(1.00662 0.045915 2.86396e-18)
(0.998416 0.0512185 0)
(0.989371 0.0572707 -4.4305e-17)
(0.97937 0.0641616 4.42613e-17)
(0.968307 0.0719924 4.5645e-17)
(0.956066 0.0808641 -4.55999e-17)
(0.94251 0.0908492 9.25356e-17)
(0.927484 0.101921 -9.10219e-17)
(0.910811 0.113808 1.42085e-18)
(0.892115 0.125774 1.42003e-18)
(1.97099 0.0150138 -5.60132e-18)
(1.20992 0.0304197 7.0743e-18)
(0.966499 0.0347236 -1.13312e-17)
(1.01683 0.0326319 -1.1325e-17)
(1.04906 0.0325879 2.26421e-17)
(1.04404 0.0351988 2.26313e-17)
(1.03523 0.0386221 -2.26219e-17)
(1.02975 0.0423948 1.41329e-18)
(1.02467 0.0467715 1.4127e-18)
(1.01867 0.0518993 4.51878e-17)
(1.01187 0.0578081 -9.03374e-17)
(1.00436 0.0645437 1.41061e-18)
(0.996119 0.0721924 4.65409e-17)
(0.987051 0.0808639 1.40973e-18)
(0.977092 0.0906803 -4.36836e-17)
(0.966171 0.101764 4.78903e-17)
(0.954195 0.114202 1.40793e-18)
(0.941045 0.127963 0)
(0.926587 0.142711 1.40673e-18)
(0.910425 0.157552 1.40651e-18)
(1.99451 0.0172735 5.48121e-18)
(1.20882 0.034553 -5.53859e-18)
(0.963371 0.0392756 1.38727e-18)
(1.01773 0.0370921 0)
(1.05133 0.0374641 2.22022e-17)
(1.0467 0.0408822 -2.22068e-17)
(1.03853 0.0452079 1.38822e-18)
(1.0338 0.0499351 -4.72095e-17)
(1.02944 0.0553564 -2.77775e-18)
(1.02416 0.0616317 8.89009e-17)
(1.01812 0.0687909 -4.7238e-17)
(1.01147 0.0768876 -1.38964e-18)
(1.00421 0.0860211 -4.7257e-17)
(0.996294 0.0963167 -4.58764e-17)
(0.987699 0.107913 8.75981e-17)
(0.978408 0.120946 8.62249e-17)
(0.96838 0.135516 -9.04136e-17)
(0.957539 0.151585 8.7649e-17)
(0.945808 0.168759 -1.79505e-16)
(0.932798 0.186001 8.76945e-17)
(2.02031 0.0195402 0)
(1.20687 0.0378218 0)
(0.959805 0.0423875 -1.35632e-18)
(1.01906 0.0401356 2.17184e-17)
(1.05418 0.0411178 -2.17376e-17)
(1.0499 0.0454785 -1.3597e-18)
(1.0424 0.0507901 -1.36093e-18)
(1.03847 0.0565257 1.36214e-18)
(1.03487 0.063012 1.36334e-18)
(1.03036 0.0704135 0)
(1.02517 0.078759 4.50693e-17)
(1.01949 0.0881086 2.10166e-22)
(1.01335 0.0985729 -4.2412e-17)
(1.00676 0.110289 -8.62681e-17)
(0.999739 0.123405 1.75428e-16)
(0.992329 0.138067 -8.64184e-17)
(0.984547 0.15438 8.78672e-17)
(0.976366 0.172302 -8.65689e-17)
(0.967766 0.191393 -8.80198e-17)
(0.958388 0.210503 8.67225e-17)
(2.04784 0.0229072 0)
(1.20277 0.0397567 1.32057e-18)
(0.955509 0.0432317 -2.11829e-17)
(1.02108 0.0415305 2.2543e-17)
(1.05777 0.0435858 -2.12479e-17)
(1.05366 0.0490439 2.39424e-17)
(1.04676 0.0554255 0)
(1.04363 0.0622187 1.33443e-18)
(1.04078 0.0697628 0)
(1.03704 0.0782279 -1.33874e-18)
(1.03274 0.0876483 4.2909e-17)
(1.0281 0.0980928 -4.29781e-17)
(1.02318 0.109682 -8.60953e-17)
(1.01804 0.12256 8.48866e-17)
(1.01275 0.13688 0)
(1.00741 0.15279 0)
(1.0021 0.170396 8.66525e-17)
(0.996828 0.189658 1.93314e-22)
(0.991653 0.210114 -8.6932e-17)
(0.986247 0.230566 8.84261e-17)
(2.07661 0.032197 -4.4481e-18)
(1.19312 0.0377099 4.49764e-18)
(0.950639 0.0389568 0)
(1.0248 0.0410127 -1.94024e-18)
(1.06225 0.0452723 -2.07425e-17)
(1.05773 0.0518424 -2.20914e-17)
(1.05138 0.0593312 8.33662e-17)
(1.049 0.0672445 -4.30885e-17)
(1.04682 0.0758239 -4.18828e-17)
(1.04384 0.0852598 4.3295e-17)
(1.04044 0.0956197 -8.41676e-17)
(1.03689 0.106987 1.6874e-16)
(1.03327 0.119488 1.8726e-22)
(1.02967 0.133267 -8.47763e-17)
(1.02622 0.148471 0)
(1.02307 0.16524 8.5186e-17)
(1.02034 0.183677 -1.70784e-16)
(1.01815 0.203757 8.55983e-17)
(1.01661 0.225027 0)
(1.01548 0.246265 0)
(2.10765 0.0526471 -5.55546e-18)
(1.16939 0.0243327 4.37143e-18)
(0.949167 0.0255068 0)
(1.03398 0.0391848 2.07767e-17)
(1.06764 0.0472939 -2.02112e-17)
(1.06144 0.0544423 -4.05492e-17)
(1.05588 0.0628583 -2.7954e-22)
(1.05426 0.0719193 8.16187e-17)
(1.05266 0.0814809 -8.18806e-17)
(1.05042 0.0917701 4.1072e-17)
(1.04798 0.102941 -8.24087e-17)
(1.04557 0.115099 8.26748e-17)
(1.0433 0.128366 -8.29424e-17)
(1.04129 0.142875 8.32113e-17)
(1.0397 0.158756 8.34817e-17)
(1.03873 0.176126 -8.37535e-17)
(1.0386 0.195063 0)
(1.0395 0.215569 -8.43008e-17)
(1.04168 0.237356 8.4577e-17)
(1.04494 0.259244 8.48299e-17)
(0.837924 0.0209458 0)
(0.800237 0.0231832 0)
(0.754969 0.0257509 4.2387e-17)
(0.700034 0.0287035 -2.30075e-17)
(0.632637 0.03205 -2.51591e-17)
(0.549212 0.0356359 4.16217e-17)
(0.445947 0.038895 -1.54583e-17)
(0.319147 0.0404571 3.4884e-17)
(0.167433 0.0375537 0)
(0.0468991 0.02133 0)
(0.842705 0.060702 -1.83918e-17)
(0.805748 0.0675145 -5.92803e-17)
(0.761208 0.0753653 -2.13205e-17)
(0.707155 0.0844161 2.31449e-17)
(0.640794 0.0946991 2.53052e-17)
(0.558513 0.105739 -5.58063e-17)
(0.456373 0.115831 4.66201e-17)
(0.330422 0.120772 -8.76243e-17)
(0.178222 0.111808 -1.00347e-17)
(0.0532889 0.0637196 6.41537e-17)
(0.852832 0.0996535 1.84677e-17)
(0.817233 0.110867 -1.9842e-17)
(0.774105 0.123823 4.28198e-17)
(0.721766 0.138759 4.64894e-17)
(0.657414 0.155726 -5.0838e-17)
(0.57735 0.173925 -2.80321e-17)
(0.477371 0.190531 3.12323e-17)
(0.352867 0.198552 -5.28414e-17)
(0.19967 0.183193 8.07112e-17)
(0.0660786 0.104575 -1.52531e-16)
(0.86864 0.136945 3.69618e-17)
(0.834921 0.152383 0)
(0.793777 0.170221 0)
(0.743876 0.190737 -4.65244e-17)
(0.682379 0.214 5.0876e-17)
(0.605455 0.238882 2.08514e-21)
(0.50851 0.261456 0)
(0.385934 0.27204 7.05185e-17)
(0.231178 0.250211 -6.05848e-17)
(0.0848596 0.142661 1.87904e-16)
(0.889821 0.171312 -3.68666e-17)
(0.858432 0.190655 0)
(0.819766 0.213032 8.54632e-17)
(0.772926 0.238709 0)
(0.715012 0.267771 5.07199e-17)
(0.64201 0.298759 5.59311e-17)
(0.548823 0.326667 0)
(0.428556 0.339263 1.40534e-16)
(0.271659 0.311018 -2.01199e-17)
(0.108923 0.176832 -7.01783e-17)
(0.915628 0.201835 1.97659e-21)
(0.886947 0.224651 -1.57459e-16)
(0.851176 0.251119 -2.63564e-21)
(0.807923 0.281433 0)
(0.75419 0.31569 -5.03873e-17)
(0.685737 0.352094 -5.55431e-17)
(0.59687 0.384595 0)
(0.47918 0.398569 -1.39456e-16)
(0.319591 0.363977 -1.59601e-16)
(0.137302 0.206104 2.31804e-17)
(0.945054 0.227876 7.33011e-22)
(0.919357 0.253689 1.08494e-21)
(0.886808 0.28374 1.68242e-16)
(0.847557 0.318113 -1.25829e-21)
(0.798451 0.356895 -9.97402e-17)
(0.734995 0.397941 -1.09904e-16)
(0.650823 0.434177 -3.05811e-17)
(0.535842 0.448771 3.44506e-17)
(0.373072 0.407857 1.18196e-16)
(0.168789 0.229695 2.28625e-16)
(0.976962 0.249092 -1.74407e-21)
(0.954346 0.277466 7.70254e-17)
(0.925231 0.310594 -1.66092e-16)
(0.890258 0.348441 -4.50432e-17)
(0.846044 0.391059 2.45965e-16)
(0.78784 0.435922 1.08356e-16)
(0.708563 0.47495 -1.20507e-16)
(0.59633 0.489309 0)
(0.430012 0.44204 3.87408e-17)
(0.202024 0.247166 -4.0415e-16)
(1.01019 0.265573 -1.20866e-21)
(0.990222 0.296072 -7.5832e-17)
(0.964576 0.33184 3.95875e-21)
(0.934019 0.372653 -8.86153e-17)
(0.894844 0.418483 9.67273e-17)
(0.842121 0.466392 5.32327e-17)
(0.768019 0.507316 5.91642e-17)
(0.658714 0.520623 -3.32625e-17)
(0.488587 0.466923 3.79484e-17)
(0.23567 0.258612 1.75706e-16)
(1.04273 0.278936 -6.93754e-17)
(1.02429 0.311087 -7.44342e-17)
(1.00229 0.34912 8.01902e-17)
(0.976303 0.392416 8.68932e-17)
(0.94245 0.440727 -1.89615e-16)
(0.895671 0.490607 0)
(0.827182 0.532034 0)
(0.720828 0.542945 -3.25141e-17)
(0.546129 0.482452 3.70448e-17)
(0.267668 0.263795 0)
(1.07234 0.299628 6.78488e-17)
(1.05456 0.332809 7.28759e-17)
(1.03612 0.371182 0)
(1.01403 0.414677 -8.52384e-17)
(0.984666 0.462223 0)
(0.942578 0.509578 -1.02556e-16)
(0.87785 0.546132 -5.70429e-17)
(0.77224 0.549949 -6.42155e-17)
(0.592033 0.481716 -1.46762e-16)
(0.292273 0.259184 1.70259e-16)
(1.10396 0.318159 1.6017e-21)
(1.0898 0.351934 -1.48211e-16)
(1.07492 0.389829 2.20845e-21)
(1.05633 0.432257 8.67194e-17)
(1.03043 0.477229 0)
(0.99103 0.519643 1.04409e-16)
(0.926968 0.548439 0)
(0.818318 0.54233 1.30889e-16)
(0.62977 0.464962 1.53659e-20)
(0.310367 0.244476 -1.73749e-16)
(1.13688 0.332592 6.99685e-17)
(1.12681 0.365912 -7.51699e-17)
(1.11537 0.402618 2.43257e-16)
(1.09986 0.442953 -8.80003e-17)
(1.07648 0.484163 -9.61795e-17)
(1.03832 0.520441 -5.3005e-17)
(0.973082 0.540478 2.41741e-21)
(0.859564 0.52394 6.65104e-17)
(0.661643 0.437943 2.66344e-16)
(0.323901 0.223844 4.42042e-17)
(1.17082 0.342075 -1.41603e-16)
(1.16453 0.374215 0)
(1.15617 0.408975 -4.53091e-21)
(1.1431 0.44621 8.90848e-17)
(1.1212 0.482572 2.43486e-16)
(1.08285 0.511769 5.36845e-17)
(1.01481 0.522539 1.19585e-16)
(0.894958 0.495886 -1.01127e-16)
(0.686949 0.402855 -1.92977e-16)
(0.33276 0.199235 1.79454e-16)
(1.20506 0.346291 7.14723e-17)
(1.202 0.376578 7.67925e-17)
(1.1961 0.408648 -1.65728e-16)
(1.18457 0.441864 -4.49837e-17)
(1.16288 0.47242 -1.9674e-16)
(1.12271 0.493767 -1.62717e-16)
(1.05008 0.495008 -2.41703e-16)
(0.922397 0.458931 1.36322e-16)
(0.703887 0.361014 0)
(0.336304 0.171886 -2.04327e-16)
(1.23861 0.345037 1.07942e-16)
(1.23807 0.372855 0)
(1.23376 0.401562 0)
(1.22266 0.429989 0)
(1.19971 0.454015 0)
(1.15597 0.467052 1.09293e-16)
(1.07698 0.458889 1.21787e-16)
(0.940208 0.414496 0)
(0.711323 0.314155 0)
(0.334327 0.143069 -9.1603e-17)
(1.2704 0.338336 -3.6134e-17)
(1.2715 0.36315 -8.75174e-22)
(1.26773 0.38792 -4.19026e-17)
(1.25575 0.410968 4.54995e-17)
(1.22995 0.428008 -4.97643e-17)
(1.18092 0.432639 1.37241e-16)
(1.094 0.415625 -3.05914e-17)
(0.947303 0.364424 6.9041e-17)
(0.708828 0.264271 -1.97825e-17)
(0.327019 0.114039 9.21129e-17)
(1.29936 0.326444 7.2382e-17)
(1.30108 0.347824 -3.88874e-17)
(1.29663 0.368212 0)
(1.28232 0.385488 -4.55757e-17)
(1.25206 0.395371 0)
(1.19612 0.39185 -5.4992e-17)
(1.10005 0.36692 -3.06435e-17)
(0.943165 0.310726 3.45826e-17)
(0.696553 0.213364 0)
(0.314859 0.0859314 -1.15371e-17)
(1.32447 0.309823 -5.42264e-17)
(1.32568 0.327465 3.88436e-17)
(1.31927 0.343166 0)
(1.30121 0.354476 0)
(1.26501 0.357284 4.97877e-17)
(1.20089 0.346173 -2.74625e-17)
(1.09493 0.314579 -3.06058e-17)
(0.928177 0.255425 -6.90835e-17)
(0.675375 0.163349 3.959e-17)
(0.298605 0.0597417 -5.18437e-17)
(1.34505 0.289098 5.40241e-17)
(1.34473 0.302717 -5.74473e-22)
(1.33515 0.313439 -2.08793e-17)
(1.31198 0.318647 0)
(1.26849 0.314602 -2.47946e-17)
(1.19506 0.296707 -1.36738e-17)
(1.07874 0.260031 3.80966e-17)
(0.902773 0.200256 8.59744e-18)
(0.645973 0.11597 -4.4335e-17)
(0.278768 0.0363248 5.15953e-17)
(1.08651 0.275525 -4.17668e-16)
(1.11575 0.292268 1.03314e-16)
(1.14551 0.305735 0)
(1.17618 0.314997 1.02192e-16)
(1.20739 0.319787 -3.36683e-23)
(1.23821 0.319919 -1.56242e-18)
(1.26775 0.315357 7.77241e-19)
(1.29512 0.306259 -4.99219e-17)
(1.31946 0.292945 4.97644e-17)
(1.34002 0.275979 -2.46354e-17)
(1.09684 0.263009 2.08293e-16)
(1.12379 0.277044 0)
(1.15108 0.288489 0)
(1.17914 0.296491 1.00456e-16)
(1.20787 0.300745 1.57061e-18)
(1.23646 0.301082 -7.80503e-19)
(1.2641 0.297452 7.76547e-19)
(1.29003 0.289955 4.87248e-17)
(1.31355 0.278824 -4.93457e-17)
(1.33382 0.264574 2.46203e-17)
(1.10671 0.252448 0)
(1.13107 0.264232 -1.0295e-16)
(1.15588 0.27363 1.02016e-16)
(1.18139 0.2802 -1.0121e-16)
(1.20767 0.283661 0)
(1.23399 0.283863 -7.80807e-19)
(1.25966 0.280757 -9.86843e-17)
(1.28405 0.274409 0)
(1.30658 0.264992 0)
(1.32637 0.252965 -2.46479e-17)
(1.11543 0.242238 0)
(1.13762 0.252018 1.18146e-21)
(1.16016 0.25966 -1.01933e-16)
(1.1833 0.264965 1.01171e-16)
(1.20721 0.267696 7.85308e-19)
(1.2313 0.267722 -1.00755e-16)
(1.25498 0.264999 -2.68303e-22)
(1.27774 0.259569 0)
(1.29912 0.25156 0)
(1.31824 0.241368 0)
(1.12265 0.232268 -1.03554e-16)
(1.14302 0.240407 2.05353e-16)
(1.1636 0.246614 7.95682e-19)
(1.18466 0.250848 -1.01924e-16)
(1.20644 0.252924 -7.85318e-19)
(1.22845 0.252745 -1.00008e-16)
(1.25023 0.25028 1.50154e-16)
(1.27137 0.245559 -3.87678e-19)
(1.29152 0.23868 -4.91094e-17)
(1.30982 0.229979 -2.4704e-17)
(1.12846 0.222501 2.06718e-16)
(1.14721 0.229342 -1.02541e-16)
(1.1661 0.234413 1.01765e-16)
(1.18537 0.237772 1.00306e-16)
(1.20527 0.239292 1.02094e-16)
(1.22542 0.238909 9.92602e-17)
(1.24546 0.236611 -4.98228e-17)
(1.26506 0.232428 -3.88004e-19)
(1.28397 0.22644 3.86786e-19)
(1.30139 0.218939 2.47318e-17)
(1.13299 0.212933 -1.03568e-16)
(1.15031 0.218726 -1.02004e-16)
(1.16771 0.222901 -1.01682e-16)
(1.18543 0.225568 -1.01058e-16)
(1.20371 0.226643 -9.97391e-17)
(1.22222 0.22609 9.85123e-17)
(1.2407 0.223915 -4.90747e-17)
(1.25888 0.220151 0)
(1.27659 0.214871 9.91924e-17)
(1.29308 0.208335 0)
(1.1364 0.203581 0)
(1.15243 0.208514 1.02269e-16)
(1.16853 0.21198 -1.01598e-16)
(1.1849 0.214107 7.89206e-19)
(1.20176 0.214839 -1.02096e-16)
(1.21884 0.214161 -1.0011e-16)
(1.23593 0.212092 5.06638e-17)
(1.25282 0.208668 -4.97488e-17)
(1.2694 0.203962 -9.92929e-17)
(1.28498 0.198208 0)
(1.13884 0.194468 -1.02776e-16)
(1.15371 0.198692 0)
(1.16865 0.201594 1.01516e-16)
(1.18385 0.2033 1.0177e-16)
(1.19946 0.203777 1.25888e-22)
(1.21529 0.203018 9.93618e-17)
(1.23115 0.201051 0)
(1.24689 0.197916 4.97905e-17)
(1.26243 0.193684 4.98907e-17)
(1.27714 0.188573 -2.501e-17)
(1.14044 0.185612 1.02584e-16)
(1.15428 0.18925 -1.01999e-16)
(1.16818 0.191701 1.01432e-16)
(1.18233 0.193083 -1.00155e-16)
(1.19686 0.193372 1.99484e-16)
(1.21159 0.19257 -9.8613e-17)
(1.22637 0.190708 -7.80413e-19)
(1.24108 0.187827 -3.89312e-19)
(1.25567 0.183997 -4.93585e-17)
(1.26955 0.179422 2.48442e-17)
(1.14133 0.177031 0)
(1.15424 0.180183 1.01865e-16)
(1.16722 0.182272 -1.01349e-16)
(1.18044 0.183402 -7.88318e-19)
(1.19401 0.183557 -9.89576e-17)
(1.20777 0.182742 -7.82916e-19)
(1.2216 0.180989 -7.8088e-19)
(1.23538 0.178338 7.79294e-19)
(1.24911 0.174856 4.97974e-17)
(1.26224 0.170737 2.48725e-17)
(1.14164 0.168733 1.026e-16)
(1.1537 0.171482 -3.97387e-19)
(1.16585 0.17328 0)
(1.17825 0.174216 0)
(1.19097 0.174278 7.85377e-19)
(1.20386 0.173473 -5.16895e-17)
(1.21684 0.171831 1.3152e-23)
(1.22981 0.169391 5.03064e-17)
(1.24275 0.166217 3.89441e-19)
(1.25518 0.162491 -2.49007e-17)
(1.14145 0.160726 -1.0201e-16)
(1.15275 0.163141 -1.01596e-16)
(1.16416 0.164704 -1.01183e-16)
(1.17582 0.165489 -7.87724e-19)
(1.18777 0.165489 1.29856e-23)
(1.1999 0.16471 5.01402e-17)
(1.21212 0.163181 7.81857e-19)
(1.22435 0.160937 9.80395e-23)
(1.23658 0.158038 0)
(1.24837 0.154657 0)
(1.14086 0.153013 -1.02217e-16)
(1.15148 0.15515 2.03321e-16)
(1.16222 0.156522 1.01101e-16)
(1.17321 0.157191 0)
(1.18448 0.157152 -9.97454e-17)
(1.19592 0.156411 4.93735e-17)
(1.20745 0.154993 0)
(1.21901 0.152931 -5.0391e-17)
(1.2306 0.150282 -2.45845e-17)
(1.2418 0.147206 0)
(1.13994 0.145592 1.02027e-16)
(1.14995 0.147498 -1.01725e-16)
(1.16008 0.148715 0)
(1.17047 0.149295 9.99662e-17)
(1.18112 0.149234 1.00532e-16)
(1.19194 0.148537 -1.00348e-16)
(1.20286 0.147229 -4.93174e-17)
(1.21381 0.145336 0)
(1.22482 0.142913 2.5e-17)
(1.23547 0.140111 0)
(1.13876 0.13846 1.01441e-16)
(1.14821 0.140173 0)
(1.1578 0.141264 0)
(1.16764 0.141776 -9.99285e-17)
(1.17773 0.141705 -1.08858e-23)
(1.18798 0.141058 4.86226e-17)
(1.19834 0.139854 5.09144e-17)
(1.20875 0.138119 -3.91284e-19)
(1.21922 0.135903 1.95515e-19)
(1.22938 0.133347 1.95426e-19)
(1.13738 0.131611 -2.02505e-16)
(1.14633 0.133163 1.01063e-16)
(1.15542 0.134152 7.87905e-19)
(1.16476 0.134611 -7.86545e-19)
(1.17434 0.134539 -5.02664e-17)
(1.18408 0.133943 0)
(1.19393 0.132839 0)
(1.20384 0.131251 5.0127e-17)
(1.21382 0.129225 0)
(1.22352 0.126891 0)
(1.13585 0.125039 1.0146e-16)
(1.14433 0.126454 -1.01325e-16)
(1.15297 0.127358 7.8726e-19)
(1.16186 0.127778 -1.02211e-16)
(1.17098 0.127712 5.10521e-17)
(1.18025 0.127167 0)
(1.18963 0.126158 -7.8426e-19)
(1.19908 0.124706 -4.97772e-17)
(1.2086 0.122853 1.95913e-19)
(1.21788 0.120723 1.95872e-19)
(1.13419 0.118732 -1.01271e-16)
(1.14226 0.120033 3.93745e-19)
(1.15049 0.120868 -1.00687e-16)
(1.15897 0.121258 1.00601e-16)
(1.16765 0.121202 7.85416e-19)
(1.1765 0.120708 -7.85035e-19)
(1.18546 0.119787 4.94392e-17)
(1.19448 0.118461 7.8456e-19)
(1.20359 0.116768 0)
(1.21247 0.114821 0)
(1.13245 0.112683 -3.93027e-19)
(1.14015 0.113886 1.01059e-16)
(1.148 0.114663 1.00605e-16)
(1.1561 0.115031 -1.01348e-16)
(1.16439 0.114988 5.10526e-17)
(1.17285 0.114542 0)
(1.18141 0.113706 -5.02548e-17)
(1.19005 0.112495 -3.92607e-19)
(1.19877 0.110948 3.92621e-19)
(1.20729 0.10917 0)
(1.13066 0.106879 3.92866e-19)
(1.13801 0.107999 -1.00927e-16)
(1.14552 0.108728 -1.00523e-16)
(1.15327 0.109078 1.00524e-16)
(1.16121 0.109051 -1.00535e-16)
(1.1693 0.108652 0)
(1.17751 0.107893 0)
(1.18578 0.10679 -3.92939e-19)
(1.19414 0.105376 -2.49568e-17)
(1.20233 0.103752 2.53541e-17)
(1.12883 0.101311 9.99273e-17)
(1.13587 0.102359 -1.0001e-16)
(1.14307 0.103046 1.0044e-16)
(1.15049 0.103384 -5.10279e-17)
(1.15811 0.103373 7.85461e-19)
(1.16587 0.103018 0)
(1.17374 0.102331 -5.03169e-17)
(1.18169 0.101327 -3.93271e-19)
(1.18971 0.100036 2.55723e-17)
(1.19758 0.0985526 -2.51864e-17)
(1.127 0.0959662 0)
(1.13375 0.0969511 1.00271e-16)
(1.14066 0.0976039 -1.00358e-16)
(1.14779 0.0979319 5.10084e-17)
(1.1551 0.0979365 4.94823e-17)
(1.16256 0.0976239 0)
(1.17012 0.097004 4.95612e-17)
(1.17776 0.0960904 3.93611e-19)
(1.18547 0.0949125 1.96914e-19)
(1.19305 0.0935575 1.96995e-19)
(1.12517 0.090834 3.90426e-19)
(1.13165 0.0917637 -3.91175e-19)
(1.1383 0.0923859 1.00276e-16)
(1.14516 0.0927064 7.84441e-19)
(1.1522 0.0927268 -5.02678e-17)
(1.15937 0.0924533 4.95401e-17)
(1.16665 0.0918951 -4.95918e-17)
(1.174 0.0910651 2.40302e-17)
(1.18143 0.0899909 5.9134e-19)
(1.18873 0.0887537 -1.97222e-19)
(1.12336 0.0859032 9.93758e-17)
(1.1296 0.0867836 3.90664e-19)
(1.136 0.0873788 0)
(1.14262 0.0876932 0)
(1.14939 0.0877286 2.36061e-23)
(1.15631 0.0874914 -5.03433e-17)
(1.16332 0.0869903 1.00032e-16)
(1.17041 0.0862371 3.94291e-19)
(1.17757 0.085258 1.97317e-19)
(1.18462 0.0841289 1.28341e-17)
(1.12157 0.0811629 -9.91933e-17)
(1.1276 0.0819988 -3.90153e-19)
(1.13378 0.0825696 -5.00558e-17)
(1.14016 0.0828786 0)
(1.1467 0.0829282 5.0268e-17)
(1.15337 0.0827245 0)
(1.16015 0.0822757 -4.96529e-17)
(1.16699 0.0815932 -2.64386e-17)
(1.1739 0.0807015 3.95036e-19)
(1.18072 0.0796715 1.3709e-23)
(1.11983 0.0766025 -9.97875e-17)
(1.12565 0.0773975 3.89644e-19)
(1.13163 0.0779459 5.00149e-17)
(1.1378 0.0782499 -7.83539e-19)
(1.14413 0.0783124 7.85441e-19)
(1.15057 0.0781393 0)
(1.15712 0.0777387 -7.88625e-19)
(1.16374 0.0771211 3.94945e-19)
(1.17042 0.0763097 1.97722e-19)
(1.17701 0.0753706 -1.24678e-17)
(1.11814 0.0722114 9.88295e-17)
(1.12378 0.0729686 3.89136e-19)
(1.12957 0.0734958 -7.80839e-19)
(1.13554 0.0737949 1.56648e-18)
(1.14166 0.0738689 -7.85441e-19)
(1.14791 0.0737238 0)
(1.15424 0.0733672 -2.52517e-17)
(1.16065 0.0728092 0)
(1.16712 0.0720715 0)
(1.1735 0.071216 1.26803e-17)
(1.11651 0.0679798 4.95175e-17)
(1.12197 0.0687012 0)
(1.12758 0.0692081 0)
(1.13338 0.0695021 -7.82937e-19)
(1.13932 0.0695861 -4.94825e-17)
(1.14537 0.0694663 0)
(1.15151 0.0691499 2.60568e-17)
(1.15772 0.0686466 -1.18683e-18)
(1.16399 0.0679767 3.96253e-19)
(1.17019 0.067198 -1.2695e-17)
(1.11493 0.0638978 -9.924e-17)
(1.12024 0.0645851 3.88123e-19)
(1.12569 0.0650722 7.79559e-19)
(1.13132 0.0653605 -5.16541e-17)
(1.13709 0.0654531 1.02107e-16)
(1.14296 0.065356 -7.87932e-19)
(1.14893 0.0650763 2.52828e-17)
(1.15495 0.064623 -3.95944e-19)
(1.16104 0.0640154 1.98332e-19)
(1.16706 0.0633074 1.98589e-19)
(1.11342 0.0599561 4.89511e-17)
(1.11858 0.0606104 3.87617e-19)
(1.12389 0.0610779 0)
(1.12937 0.0613598 4.92872e-17)
(1.13497 0.0614594 -4.94824e-17)
(1.14069 0.0613827 2.52221e-17)
(1.14648 0.0611362 1.94271e-24)
(1.15234 0.0607289 -3.9628e-19)
(1.15825 0.0601785 3.97069e-19)
(1.16411 0.0595355 0)
(1.11198 0.0561455 -3.84736e-19)
(1.11701 0.0567676 3.87113e-19)
(1.12218 0.0572155 0)
(1.12752 0.0574902 -5.00501e-17)
(1.13298 0.0575954 7.85431e-19)
(1.13854 0.0575366 -5.12495e-17)
(1.14418 0.0573203 -2.5314e-17)
(1.14989 0.0569549 -2.57802e-17)
(1.15564 0.0564572 1.9874e-19)
(1.16134 0.0558741 1.99049e-19)
(1.11062 0.0524573 -4.95405e-17)
(1.11552 0.0530477 4.98725e-17)
(1.12057 0.0534758 0)
(1.12577 0.0537425 5.08125e-17)
(1.1311 0.0538516 -7.85434e-19)
(1.13652 0.0538085 2.52389e-17)
(1.14202 0.0536195 0)
(1.14758 0.0532925 2.50082e-17)
(1.15318 0.0528433 5.96829e-19)
(1.15874 0.0523153 -1.99279e-19)
(1.10932 0.0488831 4.86836e-17)
(1.11412 0.049442 3.86065e-19)
(1.11905 0.0498499 7.77006e-19)
(1.12413 0.0501077 -7.8143e-19)
(1.12933 0.0502192 0)
(1.13463 0.0501898 2.52473e-17)
(1.14 0.0500254 -2.61373e-17)
(1.14543 0.0497335 2.58241e-17)
(1.15089 0.0493289 1.9915e-19)
(1.15632 0.0488518 1.29681e-17)
(1.10811 0.0454147 -4.89775e-17)
(1.1128 0.0459423 -4.93574e-17)
(1.11763 0.0463295 0)
(1.1226 0.0465775 0)
(1.12769 0.04669 0)
(1.13286 0.0466723 -5.05113e-17)
(1.13812 0.0465299 7.92525e-19)
(1.14342 0.04627 -2.66413e-17)
(1.14875 0.0459065 3.98709e-19)
(1.15406 0.0454764 -1.27834e-17)
(1.10697 0.0420445 -3.81896e-19)
(1.11157 0.0425405 3.85105e-19)
(1.1163 0.0429066 -7.75731e-19)
(1.12117 0.0431438 7.80822e-19)
(1.12615 0.0432559 7.8542e-19)
(1.13122 0.043248 -7.895e-19)
(1.13636 0.0431254 2.45835e-17)
(1.14155 0.0428948 3.97974e-19)
(1.14677 0.042569 3.99121e-19)
(1.15196 0.0421823 0)
(1.10591 0.0387647 4.84184e-17)
(1.11042 0.0392291 3.84606e-19)
(1.11507 0.0395734 2.48031e-17)
(1.11985 0.0397989 7.80514e-19)
(1.12473 0.0399094 -4.90095e-24)
(1.1297 0.0399095 -7.89762e-19)
(1.13474 0.0398045 0)
(1.13982 0.0396006 0)
(1.14493 0.0393097 1.2785e-17)
(1.15002 0.0389632 0)
(1.10493 0.0355683 3.80553e-19)
(1.10936 0.0360006 -3.84107e-19)
(1.11393 0.0363226 -2.55572e-17)
(1.11862 0.0365356 4.7015e-24)
(1.12342 0.036643 7.85417e-19)
(1.1283 0.0366497 2.52808e-17)
(1.13324 0.0365603 2.54079e-17)
(1.13823 0.0363808 -3.98647e-19)
(1.14325 0.0361221 -1.23983e-17)
(1.14824 0.0358129 0)
(1.10403 0.0324482 -3.79863e-19)
(1.10839 0.0328482 3.83609e-19)
(1.11289 0.0331472 -2.47624e-17)
(1.1175 0.0333466 0)
(1.12222 0.03345 0)
(1.12702 0.0334617 0)
(1.13188 0.0333861 -2.54236e-17)
(1.13678 0.0332289 -1.31666e-17)
(1.1417 0.0329999 4.00362e-19)
(1.1466 0.0327253 0)
(1.10321 0.0293977 -3.79175e-19)
(1.10751 0.0297649 3.83113e-19)
(1.11194 0.0300403 2.39689e-17)
(1.11648 0.0302254 4.5183e-24)
(1.12113 0.0303235 7.85407e-19)
(1.12585 0.0303389 0)
(1.13063 0.0302756 7.94975e-19)
(1.13545 0.0301387 1.15805e-17)
(1.14029 0.0299372 -1.2424e-17)
(1.14512 0.0296948 0)
(1.10247 0.0264102 0)
(1.10671 0.0267441 2.44874e-17)
(1.11108 0.0269953 2.47217e-17)
(1.11556 0.0271652 -7.79295e-19)
(1.12014 0.0272572 7.85402e-19)
(1.1248 0.027275 0)
(1.12951 0.0272225 1.3523e-17)
(1.13426 0.0271042 -1.19901e-18)
(1.13903 0.0269283 1.30387e-17)
(1.14378 0.0267159 2.01143e-19)
(1.1018 0.0234794 -3.77804e-19)
(1.106 0.0237795 -2.40736e-17)
(1.11031 0.0240058 -2.39295e-17)
(1.11474 0.0241599 -4.37112e-24)
(1.11927 0.0242447 -7.85396e-19)
(1.12386 0.0242639 0)
(1.12851 0.0242208 -1.35313e-17)
(1.13319 0.0241196 4.00015e-19)
(1.13789 0.0239675 6.02413e-19)
(1.14258 0.0237832 -2.01378e-19)
(1.10122 0.020599 3.77122e-19)
(1.10537 0.0208647 -3.81628e-19)
(1.10964 0.0210656 0)
(1.11402 0.0212032 0)
(1.11849 0.0212801 0)
(1.12303 0.0212996 -1.26612e-17)
(1.12762 0.0212648 -1.27432e-17)
(1.13225 0.0211793 -4.00352e-19)
(1.13689 0.0210494 2.01015e-19)
(1.14152 0.0208916 2.01614e-19)
(1.10071 0.0177628 -3.76441e-19)
(1.10482 0.0179937 3.81135e-19)
(1.10905 0.0181687 1.31011e-17)
(1.11339 0.0182891 -1.32325e-17)
(1.11782 0.0183574 0)
(1.12231 0.0183764 2.53308e-17)
(1.12686 0.0183488 1.27511e-17)
(1.13143 0.0182778 6.01044e-18)
(1.13602 0.0181688 -6.23789e-18)
(1.1406 0.0180358 2.0185e-19)
(1.10028 0.0149648 -1.24002e-17)
(1.10436 0.0151604 1.25612e-17)
(1.10855 0.015309 -1.23203e-17)
(1.11286 0.0154117 2.41203e-17)
(1.11724 0.0154709 7.85375e-19)
(1.1217 0.0154887 -2.53391e-17)
(1.1262 0.0154674 6.37948e-18)
(1.13073 0.0154098 -6.81766e-18)
(1.13528 0.0153204 6.84868e-18)
(1.13981 0.0152108 0)
(1.09992 0.0121991 1.23779e-17)
(1.10397 0.012359 -3.80154e-19)
(1.10814 0.0124808 -7.69384e-19)
(1.11242 0.0125655 -1.16665e-17)
(1.11677 0.0126149 0)
(1.12119 0.0126309 1.26737e-17)
(1.12566 0.0126152 -7.18135e-18)
(1.13015 0.01257 -5.21797e-18)
(1.13466 0.0124991 -6.04926e-19)
(1.13916 0.0124118 2.02325e-19)
(1.09963 0.00945964 -1.19812e-17)
(1.10367 0.00958369 -2.13156e-24)
(1.10782 0.00967848 7.68752e-19)
(1.11206 0.00974484 -1.55492e-18)
(1.11639 0.00978407 1.57072e-18)
(1.12079 0.00979759 -7.13131e-18)
(1.12523 0.00978678 5.58895e-18)
(1.12969 0.00975321 3.61554e-18)
(1.13417 0.00969972 3.83519e-18)
(1.13864 0.00963359 -2.02562e-19)
(1.09942 0.00674066 1.15859e-17)
(1.10344 0.0068286 -1.17543e-17)
(1.10757 0.00689616 0)
(1.1118 0.00694387 0)
(1.11612 0.00697254 7.85347e-19)
(1.12049 0.00698311 5.54839e-18)
(1.1249 0.0069765 -6.39131e-18)
(1.12935 0.00695381 2.8145e-18)
(1.1338 0.00691699 -3.03095e-18)
(1.13825 0.00687116 2.02801e-19)
(1.09928 0.00403629 3.73066e-19)
(1.10329 0.00408782 -3.78683e-19)
(1.10741 0.00412782 3.06996e-18)
(1.11163 0.00415644 -7.76844e-19)
(1.11593 0.00417406 3.14136e-18)
(1.12029 0.00418115 -2.37866e-18)
(1.12469 0.00417821 0)
(1.12912 0.00416583 -4.02415e-19)
(1.13356 0.00414514 4.0455e-19)
(1.13798 0.00411909 -8.12158e-19)
(1.0992 0.00134246 -3.73424e-19)
(1.10322 0.00135848 3.79272e-19)
(1.10734 0.0013712 -3.84552e-18)
(1.11155 0.00138055 7.78874e-19)
(1.11584 0.00138659 -1.57549e-18)
(1.12019 0.00138943 1.59127e-18)
(1.12458 0.00138918 0)
(1.129 0.00138599 -4.04066e-19)
(1.13343 0.00138018 2.03152e-19)
(1.13785 0.00137266 1.01976e-18)
(2.13353 0.0493009 0)
(1.13696 0.00898748 0)
(0.959628 0.0167042 0)
(1.04907 0.0398842 0)
(1.07152 0.0496668 0)
(1.06321 0.0561365 0)
(1.05915 0.0647289 0)
(1.05829 0.0743305 0)
(1.05713 0.0842624 0)
(1.05555 0.0947744 0)
(1.05398 0.106106 0)
(1.05257 0.118368 0)
(1.05143 0.131662 0)
(1.0507 0.146102 0)
(1.05054 0.161799 0)
(1.05118 0.178842 0)
(1.05288 0.197276 0)
(1.05603 0.217036 0)
(1.06114 0.237785 0)
(1.06783 0.258148 0)
(2.14266 0.031245 0)
(1.1173 0.0147324 0)
(0.963212 0.0224156 0)
(1.05551 0.0398543 0)
(1.07274 0.0494671 0)
(1.06397 0.0569076 0)
(1.06109 0.0657166 0)
(1.06085 0.0752896 0)
(1.06013 0.0852192 0)
(1.05916 0.0956967 0)
(1.05832 0.106907 0)
(1.05773 0.118949 0)
(1.05747 0.131907 0)
(1.0577 0.145873 0)
(1.0586 0.160927 0)
(1.06038 0.177123 0)
(1.06331 0.194455 0)
(1.06777 0.212765 0)
(1.07415 0.231493 0)
(1.08155 0.249034 0)
(2.14738 0.0182207 0)
(1.10643 0.0193378 0)
(0.96174 0.0268767 0)
(1.05673 0.0394063 0)
(1.07256 0.0489324 0)
(1.06409 0.0572935 0)
(1.06215 0.0662736 0)
(1.06256 0.0757717 0)
(1.06242 0.0856531 0)
(1.0621 0.0960479 0)
(1.06199 0.107086 0)
(1.06216 0.118852 0)
(1.06273 0.131418 0)
(1.06383 0.144852 0)
(1.06565 0.159205 0)
(1.06839 0.174497 0)
(1.07229 0.190681 0)
(1.07766 0.207554 0)
(1.08482 0.224514 0)
(1.09299 0.240082 0)
(2.151 0.0124036 0)
(1.10073 0.0197974 0)
(0.959228 0.0278888 0)
(1.05612 0.0386308 0)
(1.07182 0.0482661 0)
(1.06374 0.0571656 0)
(1.06255 0.0662928 0)
(1.06362 0.0757768 0)
(1.06409 0.0856164 0)
(1.06443 0.0959097 0)
(1.06501 0.106758 0)
(1.06591 0.118233 0)
(1.06724 0.130398 0)
(1.06913 0.143299 0)
(1.07175 0.156967 0)
(1.07529 0.171397 0)
(1.07997 0.186517 0)
(1.08602 0.202118 0)
(1.09371 0.217634 0)
(1.10244 0.231672 0)
(2.15432 0.00990007 0)
(1.0978 0.0191131 0)
(0.957232 0.0276288 0)
(1.05526 0.0377134 0)
(1.07101 0.047373 0)
(1.06321 0.0565468 0)
(1.06259 0.0657891 0)
(1.06424 0.0752767 0)
(1.0653 0.0850622 0)
(1.06624 0.0952306 0)
(1.06747 0.105866 0)
(1.06903 0.117033 0)
(1.07104 0.12878 0)
(1.07362 0.141142 0)
(1.07693 0.154132 0)
(1.08115 0.167727 0)
(1.08644 0.181846 0)
(1.09301 0.196282 0)
(1.10108 0.210511 0)
(1.11017 0.223225 0)
(2.15762 0.00877679 0)
(1.09644 0.0184564 0)
(0.955939 0.0270727 0)
(1.05459 0.0367508 0)
(1.07039 0.0463159 0)
(1.06276 0.0555862 0)