/*--------------------------------*- C++ -*----------------------------------*\
  =========                 |
  \\      /  F ield         | OpenFOAM: The Open Source CFD Toolbox
   \\    /   O peration     | Website:  https://openfoam.org
    \\  /    A nd           | Version:  6
     \\/     M anipulation  |
\*---------------------------------------------------------------------------*/
FoamFile
{
    version     2.0;
    format      ascii;
    class       volScalarField;
    location    "1.05";
    object      p;
}
// * * * * * * * * * * * * * * * * * * * * * * * * * * * * * * * * * * * * * //

dimensions      [0 2 -2 0 0 0 0];

internalField   nonuniform List<scalar> 
5600
(
995.495
996.685
997.632
997.652
997.548
997.534
997.549
997.559
997.565
997.571
997.579
997.587
997.596
997.606
997.617
997.629
997.642
997.657
997.673
997.691
995.441
996.708
997.65
997.652
997.546
997.534
997.549
997.559
997.565
997.571
997.578
997.586
997.595
997.605
997.616
997.628
997.641
997.656
997.672
997.689
995.411
996.715
997.658
997.651
997.544
997.533
997.548
997.557
997.563
997.569
997.576
997.584
997.592
997.602
997.612
997.624
997.636
997.65
997.665
997.682
995.377
996.717
997.663
997.65
997.542
997.531
997.546
997.554
997.559
997.565
997.571
997.579
997.587
997.596
997.605
997.616
997.627
997.64
997.653
997.668
995.336
996.719
997.67
997.649
997.538
997.528
997.543
997.55
997.554
997.559
997.565
997.572
997.579
997.587
997.596
997.605
997.615
997.625
997.637
997.648
995.29
996.721
997.676
997.647
997.534
997.524
997.538
997.545
997.548
997.552
997.557
997.563
997.569
997.576
997.583
997.591
997.599
997.607
997.615
997.624
995.239
996.724
997.684
997.644
997.528
997.518
997.532
997.538
997.54
997.544
997.548
997.552
997.557
997.563
997.568
997.574
997.58
997.585
997.591
997.595
995.185
996.731
997.693
997.64
997.521
997.512
997.526
997.53
997.531
997.534
997.537
997.54
997.544
997.547
997.551
997.555
997.558
997.561
997.562
997.563
995.121
996.745
997.705
997.633
997.512
997.505
997.518
997.521
997.521
997.522
997.525
997.527
997.529
997.531
997.533
997.535
997.535
997.535
997.533
997.529
994.995
996.792
997.724
997.615
997.499
997.497
997.509
997.511
997.51
997.51
997.512
997.513
997.514
997.514
997.514
997.514
997.512
997.508
997.503
997.495
997.714
997.745
997.779
997.819
997.865
997.918
997.977
998.041
998.113
998.284
997.711
997.74
997.775
997.814
997.858
997.908
997.965
998.028
998.095
998.266
997.701
997.729
997.762
997.799
997.841
997.889
997.942
998
998.062
998.228
997.684
997.71
997.74
997.775
997.814
997.857
997.906
997.958
998.014
998.171
997.66
997.682
997.711
997.742
997.777
997.815
997.857
997.902
997.95
998.096
997.63
997.648
997.674
997.701
997.731
997.764
997.798
997.835
997.874
998.005
997.595
997.609
997.632
997.655
997.679
997.705
997.732
997.759
997.787
997.901
997.556
997.567
997.586
997.604
997.623
997.641
997.659
997.677
997.694
997.787
997.515
997.522
997.537
997.551
997.563
997.575
997.585
997.593
997.599
997.669
997.472
997.478
997.489
997.497
997.504
997.508
997.508
997.505
997.497
997.544
997.436
997.444
997.449
997.45
997.447
997.438
997.42
997.395
997.366
997.4
997.396
997.4
997.399
997.393
997.383
997.364
997.336
997.299
997.259
997.272
997.354
997.353
997.346
997.334
997.316
997.29
997.254
997.208
997.161
997.152
997.31
997.304
997.291
997.273
997.249
997.215
997.171
997.119
997.066
997.036
997.264
997.253
997.235
997.212
997.182
997.142
997.092
997.034
996.976
996.928
997.218
997.203
997.181
997.153
997.117
997.073
997.018
996.956
996.894
996.831
997.173
997.154
997.128
997.097
997.057
997.008
996.951
996.886
996.823
996.745
997.131
997.108
997.079
997.045
997.002
996.951
996.892
996.827
996.762
996.672
997.091
997.066
997.035
996.998
996.954
996.902
996.843
996.778
996.713
996.613
997.055
997.028
996.996
996.958
996.913
996.862
996.802
996.738
996.673
996.564
997.431
997.39
997.349
997.307
997.264
997.222
997.18
997.142
997.106
997.073
997.418
997.379
997.34
997.301
997.262
997.223
997.185
997.149
997.116
997.086
997.402
997.365
997.328
997.293
997.257
997.222
997.188
997.156
997.126
997.098
997.387
997.353
997.319
997.286
997.254
997.222
997.191
997.161
997.134
997.108
997.374
997.342
997.311
997.281
997.251
997.222
997.193
997.166
997.141
997.117
997.362
997.333
997.304
997.276
997.249
997.222
997.196
997.171
997.147
997.125
997.352
997.324
997.298
997.272
997.247
997.222
997.198
997.175
997.153
997.132
997.342
997.317
997.292
997.269
997.245
997.222
997.2
997.178
997.158
997.138
997.334
997.31
997.287
997.265
997.244
997.222
997.201
997.181
997.162
997.144
997.326
997.304
997.283
997.263
997.242
997.222
997.203
997.184
997.166
997.149
997.319
997.299
997.279
997.26
997.241
997.222
997.204
997.187
997.17
997.153
997.313
997.294
997.276
997.258
997.24
997.223
997.206
997.189
997.173
997.157
997.307
997.289
997.272
997.256
997.239
997.223
997.207
997.191
997.176
997.161
997.302
997.285
997.269
997.254
997.238
997.223
997.208
997.193
997.179
997.165
997.297
997.282
997.267
997.252
997.237
997.223
997.209
997.195
997.181
997.168
997.293
997.279
997.264
997.25
997.237
997.223
997.209
997.196
997.183
997.17
997.289
997.276
997.262
997.249
997.236
997.223
997.21
997.197
997.185
997.173
997.286
997.273
997.26
997.248
997.235
997.223
997.211
997.199
997.187
997.175
997.282
997.27
997.258
997.246
997.235
997.223
997.211
997.2
997.189
997.178
997.279
997.268
997.257
997.245
997.234
997.223
997.212
997.201
997.19
997.179
997.277
997.266
997.255
997.244
997.233
997.223
997.212
997.202
997.191
997.181
997.274
997.264
997.253
997.243
997.233
997.223
997.213
997.203
997.193
997.183
997.272
997.262
997.252
997.242
997.232
997.223
997.213
997.203
997.194
997.184
997.269
997.26
997.251
997.241
997.232
997.222
997.213
997.204
997.195
997.186
997.267
997.258
997.249
997.24
997.231
997.222
997.213
997.204
997.196
997.187
997.265
997.257
997.248
997.24
997.231
997.222
997.214
997.205
997.197
997.188
997.264
997.255
997.247
997.239
997.23
997.222
997.214
997.205
997.197
997.189
997.262
997.254
997.246
997.238
997.23
997.222
997.214
997.206
997.198
997.19
997.26
997.253
997.245
997.237
997.23
997.222
997.214
997.206
997.199
997.191
997.259
997.252
997.244
997.237
997.229
997.222
997.214
997.207
997.199
997.192
997.258
997.25
997.243
997.236
997.229
997.222
997.214
997.207
997.2
997.192
997.256
997.249
997.243
997.236
997.229
997.221
997.214
997.207
997.2
997.193
997.255
997.248
997.242
997.235
997.228
997.221
997.214
997.207
997.201
997.194
997.254
997.248
997.241
997.235
997.228
997.221
997.214
997.208
997.201
997.194
997.253
997.247
997.24
997.234
997.228
997.221
997.214
997.208
997.201
997.195
997.252
997.246
997.24
997.234
997.227
997.221
997.214
997.208
997.202
997.195
997.251
997.245
997.239
997.233
997.227
997.221
997.214
997.208
997.202
997.195
997.25
997.245
997.239
997.233
997.227
997.221
997.214
997.208
997.202
997.196
997.25
997.244
997.238
997.232
997.227
997.221
997.214
997.208
997.202
997.196
997.249
997.243
997.238
997.232
997.226
997.22
997.214
997.208
997.202
997.196
997.248
997.243
997.237
997.232
997.226
997.22
997.214
997.209
997.203
997.197
997.248
997.243
997.237
997.232
997.226
997.22
997.214
997.209
997.203
997.197
997.247
997.242
997.237
997.231
997.226
997.22
997.214
997.209
997.203
997.197
997.247
997.242
997.237
997.231
997.226
997.22
997.214
997.209
997.203
997.197
997.247
997.242
997.236
997.231
997.226
997.22
997.214
997.209
997.203
997.197
997.246
997.241
997.236
997.231
997.225
997.22
997.214
997.209
997.203
997.198
997.246
997.241
997.236
997.231
997.225
997.22
997.214
997.209
997.203
997.198
997.246
997.241
997.236
997.231
997.225
997.22
997.214
997.209
997.203
997.198
997.246
997.241
997.236
997.23
997.225
997.22
997.214
997.209
997.203
997.198
997.246
997.241
997.236
997.23
997.225
997.22
997.214
997.209
997.203
997.198
994.73
996.93
997.763
997.579
997.481
997.49
997.499
997.498
997.496
997.496
997.496
997.495
997.494
997.492
997.49
997.486
997.481
997.474
997.463
997.446
994.612
996.978
997.764
997.555
997.47
997.484
997.491
997.489
997.487
997.486
997.485
997.483
997.482
997.479
997.475
997.471
997.464
997.456
997.444
997.428
994.565
996.978
997.754
997.54
997.461
997.477
997.483
997.48
997.478
997.476
997.475
997.473
997.47
997.467
997.463
997.457
997.45
997.441
997.43
997.414
994.536
996.971
997.746
997.529
997.452
997.469
997.474
997.471
997.469
997.467
997.465
997.462
997.459
997.455
997.45
997.444
997.436
997.427
997.416
997.401
994.514
996.963
997.739
997.52
997.443
997.46
997.466
997.462
997.46
997.457
997.455
997.452
997.448
997.444
997.438
997.432
997.424
997.414
997.403
997.388
994.496
996.954
997.732
997.511
997.434
997.452
997.457
997.454
997.451
997.448
997.445
997.442
997.438
997.433
997.427
997.42
997.412
997.402
997.391
997.377
994.478
996.945
997.725
997.503
997.425
997.443
997.449
997.445
997.442
997.439
997.436
997.432
997.428
997.422
997.416
997.409
997.401
997.391
997.38
997.367
994.461
996.936
997.718
997.495
997.417
997.435
997.441
997.437
997.433
997.43
997.427
997.423
997.418
997.413
997.406
997.399
997.391
997.381
997.37
997.357
994.445
996.927
997.711
997.487
997.409
997.427
997.433
997.428
997.425
997.422
997.418
997.414
997.409
997.404
997.397
997.39
997.381
997.372
997.361
997.349
994.428
996.919
997.704
997.48
997.402
997.42
997.425
997.421
997.417
997.414
997.41
997.406
997.401
997.395
997.388
997.381
997.373
997.363
997.353
997.341
994.412
996.91
997.698
997.472
997.394
997.412
997.417
997.413
997.409
997.406
997.402
997.398
997.392
997.387
997.38
997.373
997.365
997.355
997.345
997.334
994.397
996.902
997.692
997.465
997.387
997.405
997.41
997.406
997.402
997.398
997.394
997.39
997.385
997.379
997.372
997.365
997.357
997.348
997.338
997.327
994.381
996.894
997.686
997.459
997.38
997.398
997.403
997.399
997.395
997.391
997.387
997.383
997.377
997.372
997.365
997.358
997.35
997.341
997.332
997.321
994.366
996.886
997.68
997.452
997.373
997.391
997.396
997.392
997.388
997.384
997.38
997.376
997.37
997.365
997.358
997.351
997.343
997.335
997.326
997.316
994.352
996.879
997.674
997.446
997.366
997.385
997.39
997.385
997.381
997.378
997.374
997.369
997.364
997.358
997.352
997.345
997.337
997.329
997.32
997.31
994.338
996.872
997.669
997.439
997.36
997.378
997.383
997.379
997.375
997.371
997.367
997.363
997.358
997.352
997.346
997.339
997.332
997.324
997.315
997.306
994.325
996.865
997.663
997.434
997.354
997.372
997.377
997.373
997.369
997.365
997.361
997.357
997.352
997.346
997.34
997.334
997.326
997.319
997.31
997.301
994.312
996.858
997.658
997.428
997.348
997.366
997.372
997.367
997.363
997.36
997.356
997.351
997.346
997.341
997.335
997.328
997.321
997.314
997.306
997.297
994.299
996.851
997.653
997.422
997.342
997.361
997.366
997.361
997.358
997.354
997.35
997.346
997.341
997.336
997.33
997.324
997.317
997.31
997.302
997.294
994.287
996.845
997.648
997.417
997.337
997.355
997.361
997.356
997.352
997.349
997.345
997.341
997.336
997.331
997.325
997.319
997.312
997.305
997.298
997.29
994.276
996.839
997.644
997.412
997.332
997.35
997.356
997.351
997.347
997.344
997.34
997.336
997.331
997.326
997.321
997.315
997.308
997.302
997.294
997.287
994.265
996.833
997.64
997.407
997.327
997.346
997.351
997.346
997.343
997.339
997.336
997.331
997.327
997.322
997.317
997.311
997.305
997.298
997.291
997.284
994.254
996.828
997.635
997.403
997.322
997.341
997.346
997.342
997.338
997.335
997.331
997.327
997.323
997.318
997.313
997.307
997.301
997.295
997.288
997.281
994.244
996.823
997.632
997.398
997.318
997.336
997.342
997.337
997.334
997.331
997.327
997.323
997.319
997.314
997.309
997.304
997.298
997.292
997.285
997.278
994.235
996.818
997.628
997.394
997.314
997.332
997.338
997.333
997.33
997.327
997.323
997.319
997.315
997.31
997.305
997.3
997.295
997.289
997.282
997.276
994.226
996.813
997.624
997.39
997.31
997.328
997.334
997.329
997.326
997.323
997.319
997.316
997.311
997.307
997.302
997.297
997.292
997.286
997.28
997.274
994.217
996.808
997.621
997.386
997.306
997.325
997.33
997.326
997.322
997.319
997.316
997.312
997.308
997.304
997.299
997.294
997.289
997.283
997.278
997.272
994.209
996.804
997.618
997.383
997.302
997.321
997.327
997.322
997.319
997.316
997.313
997.309
997.305
997.301
997.296
997.291
997.286
997.281
997.275
997.27
994.201
996.8
997.615
997.38
997.299
997.318
997.323
997.319
997.316
997.313
997.31
997.306
997.302
997.298
997.294
997.289
997.284
997.279
997.273
997.268
994.194
996.796
997.612
997.376
997.295
997.314
997.32
997.316
997.312
997.31
997.307
997.303
997.299
997.295
997.291
997.286
997.282
997.277
997.271
997.266
994.187
996.793
997.609
997.373
997.292
997.311
997.317
997.313
997.31
997.307
997.304
997.3
997.297
997.293
997.289
997.284
997.28
997.275
997.27
997.264
994.18
996.789
997.606
997.371
997.289
997.309
997.314
997.31
997.307
997.304
997.301
997.298
997.294
997.291
997.286
997.282
997.278
997.273
997.268
997.263
994.174
996.786
997.604
997.368
997.287
997.306
997.312
997.308
997.304
997.302
997.299
997.296
997.292
997.288
997.284
997.28
997.276
997.271
997.266
997.261
994.168
996.783
997.602
997.365
997.284
997.303
997.309
997.305
997.302
997.3
997.297
997.293
997.29
997.286
997.283
997.278
997.274
997.27
997.265
997.26
994.163
996.78
997.6
997.363
997.282
997.301
997.307
997.303
997.3
997.297
997.295
997.291
997.288
997.285
997.281
997.277
997.273
997.268
997.264
997.259
994.158
996.778
997.598
997.361
997.28
997.299
997.305
997.301
997.298
997.295
997.293
997.29
997.286
997.283
997.279
997.275
997.271
997.267
997.262
997.258
994.154
996.776
997.596
997.359
997.278
997.297
997.303
997.299
997.296
997.294
997.291
997.288
997.285
997.281
997.278
997.274
997.27
997.266
997.261
997.257
994.149
996.773
997.594
997.357
997.276
997.295
997.301
997.297
997.294
997.292
997.289
997.286
997.283
997.28
997.276
997.272
997.268
997.264
997.26
997.256
994.145
996.771
997.593
997.355
997.274
997.293
997.3
997.296
997.293
997.29
997.288
997.285
997.282
997.278
997.275
997.271
997.267
997.263
997.259
997.255
994.142
996.769
997.591
997.354
997.272
997.292
997.298
997.294
997.291
997.289
997.286
997.284
997.28
997.277
997.274
997.27
997.266
997.262
997.258
997.254
994.138
996.768
997.59
997.353
997.271
997.291
997.297
997.293
997.29
997.288
997.285
997.282
997.279
997.276
997.273
997.269
997.265
997.262
997.257
997.253
994.135
996.766
997.589
997.351
997.27
997.289
997.296
997.292
997.289
997.287
997.284
997.281
997.278
997.275
997.272
997.268
997.265
997.261
997.257
997.253
994.133
996.765
997.588
997.35
997.269
997.288
997.294
997.291
997.288
997.286
997.283
997.28
997.277
997.274
997.271
997.268
997.264
997.26
997.256
997.252
994.13
996.763
997.587
997.349
997.268
997.287
997.294
997.29
997.287
997.285
997.282
997.28
997.277
997.274
997.27
997.267
997.263
997.259
997.256
997.252
994.128
996.762
997.586
997.349
997.267
997.287
997.293
997.289
997.286
997.284
997.282
997.279
997.276
997.273
997.27
997.266
997.263
997.259
997.255
997.251
994.127
996.761
997.585
997.348
997.267
997.286
997.292
997.288
997.286
997.283
997.281
997.278
997.275
997.272
997.269
997.266
997.262
997.259
997.255
997.251
994.128
996.759
997.585
997.348
997.266
997.285
997.292
997.288
997.285
997.283
997.28
997.278
997.275
997.272
997.269
997.265
997.262
997.258
997.254
997.251
994.132
996.757
997.585
997.349
997.266
997.285
997.291
997.288
997.285
997.283
997.28
997.277
997.275
997.272
997.268
997.265
997.262
997.258
997.254
997.25
994.154
996.744
997.584
997.352
997.266
997.284
997.291
997.287
997.284
997.282
997.28
997.277
997.274
997.271
997.268
997.265
997.261
997.258
997.254
997.25
994.23
996.694
997.574
997.36
997.267
997.283
997.291
997.287
997.284
997.282
997.28
997.277
997.274
997.271
997.268
997.265
997.261
997.258
997.254
997.25
996.908
996.872
996.84
996.811
996.781
996.748
996.714
996.677
996.639
996.571
996.912
996.877
996.844
996.816
996.786
996.755
996.721
996.686
996.651
996.591
996.906
996.876
996.846
996.82
996.792
996.763
996.732
996.699
996.666
996.614
996.9
996.874
996.846
996.822
996.796
996.769
996.74
996.71
996.681
996.637
996.894
996.872
996.847
996.824
996.8
996.775
996.748
996.72
996.694
996.66
996.889
996.87
996.848
996.826
996.804
996.78
996.755
996.73
996.706
996.68
996.885
996.868
996.849
996.829
996.808
996.785
996.761
996.738
996.717
996.697
996.883
996.868
996.85
996.831
996.811
996.789
996.767
996.745
996.725
996.711
996.882
996.868
996.851
996.833
996.813
996.792
996.771
996.749
996.731
996.721
996.883
996.869
996.852
996.834
996.815
996.794
996.773
996.752
996.734
996.725
996.892
996.901
996.91
996.919
996.927
996.936
996.944
996.952
996.96
996.968
996.975
996.982
996.989
996.995
997.002
997.008
997.014
997.019
997.025
997.03
997.035
997.04
997.044
997.049
997.053
997.057
997.061
997.064
997.068
997.071
997.075
997.078
997.081
997.084
997.087
997.09
997.093
997.096
997.098
997.101
997.104
997.107
997.109
997.112
997.115
997.118
997.121
997.125
997.129
997.132
996.889
996.897
996.907
996.916
996.925
996.934
996.942
996.95
996.958
996.966
996.973
996.981
996.988
996.994
997.001
997.007
997.013
997.018
997.024
997.029
997.034
997.039
997.044
997.048
997.052
997.056
997.06
997.064
997.068
997.071
997.074
997.078
997.081
997.084
997.087
997.09
997.092
997.095
997.098
997.101
997.103
997.106
997.109
997.112
997.115
997.118
997.121
997.124
997.128
997.131
996.884
996.893
996.903
996.913
996.922
996.931
996.94
996.948
996.956
996.964
996.972
996.979
996.986
996.993
996.999
997.006
997.012
997.017
997.023
997.028
997.033
997.038
997.043
997.047
997.052
997.056
997.06
997.063
997.067
997.07
997.074
997.077
997.08
997.083
997.086
997.089
997.092
997.095
997.097
997.1
997.103
997.106
997.108
997.111
997.114
997.117
997.12
997.123
997.126
997.13
996.879
996.887
996.899
996.91
996.919
996.928
996.937
996.946
996.954
996.962
996.97
996.978
996.985
996.992
996.998
997.004
997.011
997.016
997.022
997.027
997.032
997.037
997.042
997.046
997.051
997.055
997.059
997.063
997.066
997.07
997.073
997.076
997.08
997.083
997.086
997.089
997.091
997.094
997.097
997.099
997.102
997.105
997.107
997.11
997.113
997.115
997.118
997.121
997.124
997.127
996.874
996.881
996.895
996.906
996.916
996.926
996.935
996.944
996.952
996.961
996.968
996.976
996.983
996.99
996.997
997.003
997.009
997.015
997.021
997.026
997.031
997.036
997.041
997.046
997.05
997.054
997.058
997.062
997.066
997.069
997.072
997.076
997.079
997.082
997.085
997.088
997.09
997.093
997.096
997.098
997.101
997.104
997.106
997.109
997.111
997.114
997.116
997.119
997.122
997.124
996.869
996.875
996.89
996.903
996.913
996.923
996.933
996.942
996.951
996.959
996.967
996.975
996.982
996.989
996.996
997.002
997.008
997.014
997.02
997.025
997.031
997.036
997.04
997.045
997.049
997.053
997.057
997.061
997.065
997.068
997.072
997.075
997.078
997.081
997.084
997.087
997.089
997.092
997.095
997.097
997.1
997.102
997.104
997.107
997.109
997.111
997.114
997.116
997.118
997.121
996.865
996.87
996.887
996.9
996.911
996.921
996.931
996.94
996.949
996.958
996.966
996.974
996.981
996.988
996.995
997.001
997.008
997.013
997.019
997.025
997.03
997.035
997.039
997.044
997.048
997.052
997.056
997.06
997.064
997.067
997.071
997.074
997.077
997.08
997.083
997.086
997.088
997.091
997.093
997.096
997.098
997.1
997.103
997.105
997.107
997.109
997.111
997.113
997.115
997.116
996.862
996.867
996.885
996.899
996.91
996.92
996.93
996.94
996.949
996.957
996.965
996.973
996.981
996.988
996.994
997.001
997.007
997.013
997.018
997.024
997.029
997.034
997.039
997.043
997.047
997.052
997.055
997.059
997.063
997.066
997.07
997.073
997.076
997.079
997.082
997.084
997.087
997.089
997.092
997.094
997.096
997.098
997.1
997.102
997.104
997.106
997.108
997.109
997.111
997.112
996.86
996.866
996.886
996.9
996.911
996.921
996.931
996.94
996.949
996.958
996.966
996.973
996.98
996.987
996.994
997
997.006
997.012
997.018
997.023
997.028
997.033
997.038
997.042
997.047
997.051
997.055
997.058
997.062
997.065
997.069
997.072
997.075
997.078
997.08
997.083
997.085
997.088
997.09
997.092
997.094
997.096
997.098
997.1
997.101
997.103
997.104
997.105
997.106
997.107
996.861
996.873
996.892
996.905
996.916
996.926
996.935
996.944
996.952
996.96
996.968
996.975
996.982
996.988
996.995
997.001
997.007
997.012
997.018
997.023
997.028
997.033
997.037
997.042
997.046
997.05
997.054
997.057
997.061
997.064
997.067
997.07
997.073
997.076
997.079
997.081
997.084
997.086
997.088
997.09
997.092
997.094
997.095
997.097
997.098
997.099
997.1
997.101
997.102
997.102
996.914
996.909
996.909
996.916
996.924
996.932
996.94
996.948
996.956
996.963
996.97
996.977
996.984
996.99
996.996
997.002
997.008
997.014
997.019
997.024
997.029
997.033
997.038
997.042
997.046
997.05
997.054
997.057
997.061
997.064
997.067
997.07
997.073
997.076
997.078
997.08
997.083
997.085
997.087
997.089
997.09
997.092
997.093
997.095
997.096
997.097
997.097
997.098
997.098
997.098
996.928
996.925
996.923
996.928
996.934
996.94
996.947
996.954
996.961
996.968
996.975
996.981
996.987
996.993
996.999
997.005
997.01
997.015
997.02
997.025
997.03
997.034
997.039
997.043
997.047
997.05
997.054
997.057
997.061
997.064
997.067
997.07
997.072
997.075
997.077
997.08
997.082
997.084
997.086
997.087
997.089
997.09
997.092
997.093
997.093
997.094
997.095
997.095
997.095
997.095
996.936
996.936
996.935
996.939
996.944
996.949
996.955
996.961
996.967
996.974
996.98
996.985
996.991
996.997
997.002
997.007
997.013
997.018
997.022
997.027
997.031
997.036
997.04
997.044
997.047
997.051
997.054
997.058
997.061
997.064
997.067
997.069
997.072
997.074
997.077
997.079
997.081
997.083
997.084
997.086
997.087
997.089
997.09
997.09
997.091
997.092
997.092
997.092
997.092
997.091
996.945
996.946
996.946
996.949
996.953
996.958
996.963
996.968
996.974
996.979
996.985
996.99
996.995
997
997.005
997.01
997.015
997.02
997.024
997.029
997.033
997.037
997.041
997.044
997.048
997.051
997.055
997.058
997.061
997.064
997.066
997.069
997.071
997.074
997.076
997.078
997.08
997.081
997.083
997.084
997.086
997.087
997.088
997.088
997.089
997.089
997.089
997.089
997.089
997.088
996.954
996.956
996.957
996.959
996.963
996.967
996.971
996.975
996.98
996.985
996.99
996.995
997
997.004
997.009
997.013
997.018
997.022
997.026
997.03
997.034
997.038
997.042
997.045
997.049
997.052
997.055
997.058
997.061
997.064
997.066
997.069
997.071
997.073
997.075
997.077
997.079
997.08
997.082
997.083
997.084
997.085
997.086
997.086
997.087
997.087
997.087
997.086
997.086
997.085
996.964
996.966
996.967
996.969
996.972
996.975
996.979
996.983
996.987
996.991
996.995
997
997.004
997.008
997.012
997.017
997.021
997.025
997.029
997.032
997.036
997.04
997.043
997.046
997.05
997.053
997.056
997.058
997.061
997.064
997.066
997.068
997.07
997.072
997.074
997.076
997.078
997.079
997.08
997.082
997.082
997.083
997.084
997.084
997.085
997.084
997.084
997.084
997.083
997.082
996.974
996.975
996.976
996.978
996.981
996.983
996.986
996.99
996.993
996.997
997.001
997.005
997.008
997.012
997.016
997.02
997.024
997.027
997.031
997.035
997.038
997.041
997.044
997.047
997.05
997.053
997.056
997.059
997.061
997.064
997.066
997.068
997.07
997.072
997.074
997.075
997.077
997.078
997.079
997.08
997.081
997.082
997.082
997.082
997.082
997.082
997.082
997.081
997.08
997.079
996.984
996.985
996.986
996.987
996.989
996.991
996.994
996.997
997
997.003
997.006
997.01
997.013
997.017
997.02
997.023
997.027
997.03
997.033
997.037
997.04
997.043
997.046
997.049
997.051
997.054
997.057
997.059
997.061
997.064
997.066
997.068
997.07
997.071
997.073
997.074
997.076
997.077
997.078
997.079
997.079
997.08
997.08
997.081
997.08
997.08
997.08
997.079
997.078
997.076
996.994
996.994
996.995
996.996
996.998
996.999
997.001
997.004
997.006
997.009
997.012
997.015
997.018
997.021
997.024
997.027
997.03
997.033
997.036
997.039
997.042
997.045
997.047
997.05
997.053
997.055
997.057
997.06
997.062
997.064
997.066
997.068
997.069
997.071
997.072
997.074
997.075
997.076
997.077
997.078
997.078
997.079
997.079
997.079
997.079
997.078
997.077
997.076
997.075
997.074
997.004
997.004
997.004
997.005
997.006
997.007
997.009
997.011
997.013
997.015
997.017
997.02
997.022
997.025
997.028
997.031
997.033
997.036
997.039
997.041
997.044
997.046
997.049
997.051
997.054
997.056
997.058
997.06
997.062
997.064
997.066
997.067
997.069
997.07
997.072
997.073
997.074
997.075
997.076
997.076
997.077
997.077
997.077
997.077
997.077
997.076
997.075
997.074
997.073
997.071
997.014
997.013
997.013
997.013
997.014
997.015
997.016
997.017
997.019
997.021
997.023
997.025
997.027
997.029
997.032
997.034
997.037
997.039
997.041
997.044
997.046
997.048
997.051
997.053
997.055
997.057
997.059
997.061
997.063
997.064
997.066
997.067
997.069
997.07
997.071
997.072
997.073
997.074
997.075
997.075
997.076
997.076
997.076
997.076
997.075
997.075
997.074
997.073
997.071
997.069
997.023
997.022
997.022
997.022
997.022
997.022
997.023
997.024
997.025
997.027
997.028
997.03
997.032
997.034
997.036
997.038
997.04
997.042
997.044
997.046
997.048
997.05
997.052
997.054
997.056
997.058
997.06
997.061
997.063
997.065
997.066
997.067
997.069
997.07
997.071
997.072
997.073
997.073
997.074
997.074
997.075
997.075
997.075
997.074
997.074
997.073
997.072
997.071
997.07
997.068
997.032
997.03
997.03
997.029
997.029
997.029
997.03
997.03
997.031
997.032
997.033
997.035
997.036
997.038
997.04
997.041
997.043
997.045
997.047
997.049
997.05
997.052
997.054
997.056
997.057
997.059
997.061
997.062
997.064
997.065
997.066
997.068
997.069
997.07
997.071
997.071
997.072
997.073
997.073
997.073
997.074
997.074
997.073
997.073
997.073
997.072
997.071
997.07
997.068
997.066
997.041
997.038
997.038
997.037
997.036
997.036
997.036
997.036
997.037
997.038
997.038
997.04
997.041
997.042
997.043
997.045
997.046
997.048
997.049
997.051
997.053
997.054
997.056
997.057
997.059
997.06
997.062
997.063
997.064
997.066
997.067
997.068
997.069
997.07
997.07
997.071
997.072
997.072
997.073
997.073
997.073
997.073
997.072
997.072
997.071
997.071
997.07
997.068
997.067
997.065
997.049
997.046
997.045
997.044
997.043
997.043
997.042
997.042
997.042
997.043
997.043
997.044
997.045
997.046
997.047
997.048
997.05
997.051
997.052
997.053
997.055
997.056
997.058
997.059
997.06
997.061
997.063
997.064
997.065
997.066
997.067
997.068
997.069
997.07
997.07
997.071
997.071
997.072
997.072
997.072
997.072
997.072
997.072
997.071
997.071
997.07
997.069
997.067
997.066
997.064
997.056
997.053
997.052
997.051
997.05
997.049
997.048
997.048
997.048
997.048
997.048
997.049
997.049
997.05
997.051
997.052
997.053
997.054
997.055
997.056
997.057
997.058
997.059
997.06
997.062
997.063
997.064
997.065
997.066
997.067
997.068
997.068
997.069
997.07
997.07
997.071
997.071
997.071
997.072
997.072
997.072
997.071
997.071
997.07
997.07
997.069
997.068
997.067
997.065
997.064
997.063
997.06
997.059
997.057
997.056
997.055
997.054
997.053
997.053
997.053
997.053
997.053
997.053
997.054
997.054
997.055
997.056
997.057
997.057
997.058
997.059
997.06
997.061
997.062
997.063
997.064
997.065
997.066
997.067
997.067
997.068
997.069
997.069
997.07
997.07
997.071
997.071
997.071
997.071
997.071
997.071
997.071
997.07
997.07
997.069
997.068
997.067
997.066
997.065
997.063
997.07
997.066
997.065
997.063
997.062
997.06
997.059
997.058
997.058
997.057
997.057
997.057
997.057
997.057
997.058
997.058
997.059
997.059
997.06
997.061
997.061
997.062
997.063
997.064
997.064
997.065
997.066
997.067
997.067
997.068
997.069
997.069
997.07
997.07
997.07
997.071
997.071
997.071
997.071
997.071
997.071
997.07
997.07
997.069
997.069
997.068
997.067
997.066
997.064
997.063
997.076
997.073
997.071
997.069
997.067
997.065
997.064
997.063
997.062
997.062
997.061
997.061
997.061
997.061
997.061
997.061
997.062
997.062
997.063
997.063
997.064
997.064
997.065
997.065
997.066
997.067
997.067
997.068
997.068
997.069
997.069
997.07
997.07
997.07
997.071
997.071
997.071
997.071
997.071
997.071
997.07
997.07
997.07
997.069
997.068
997.068
997.067
997.065
997.064
997.063
997.082
997.078
997.076
997.074
997.072
997.07
997.069
997.068
997.067
997.066
997.065
997.065
997.065
997.064
997.064
997.064
997.065
997.065
997.065
997.065
997.066
997.066
997.066
997.067
997.067
997.068
997.068
997.069
997.069
997.07
997.07
997.07
997.07
997.071
997.071
997.071
997.071
997.071
997.071
997.071
997.07
997.07
997.069
997.069
997.068
997.067
997.066
997.065
997.064
997.063
997.087
997.083
997.081
997.079
997.077
997.075
997.074
997.072
997.071
997.07
997.069
997.069
997.068
997.068
997.067
997.067
997.067
997.067
997.067
997.067
997.068
997.068
997.068
997.068
997.069
997.069
997.069
997.07
997.07
997.07
997.071
997.071
997.071
997.071
997.071
997.071
997.071
997.071
997.071
997.071
997.07
997.07
997.069
997.069
997.068
997.067
997.066
997.065
997.064
997.063
997.092
997.088
997.086
997.084
997.082
997.08
997.078
997.076
997.075
997.074
997.073
997.072
997.071
997.071
997.07
997.07
997.07
997.07
997.07
997.07
997.07
997.07
997.07
997.07
997.07
997.07
997.071
997.071
997.071
997.071
997.071
997.071
997.071
997.072
997.072
997.071
997.071
997.071
997.071
997.071
997.07
997.07
997.069
997.069
997.068
997.067
997.066
997.065
997.064
997.063
997.097
997.093
997.091
997.088
997.086
997.084
997.082
997.08
997.079
997.077
997.076
997.075
997.075
997.074
997.073
997.073
997.072
997.072
997.072
997.072
997.072
997.072
997.072
997.072
997.072
997.072
997.072
997.072
997.072
997.072
997.072
997.072
997.072
997.072
997.072
997.072
997.072
997.071
997.071
997.071
997.07
997.07
997.069
997.069
997.068
997.067
997.067
997.066
997.065
997.064
997.101
997.097
997.095
997.092
997.09
997.088
997.086
997.084
997.082
997.081
997.08
997.079
997.078
997.077
997.076
997.075
997.075
997.074
997.074
997.074
997.073
997.073
997.073
997.073
997.073
997.073
997.073
997.073
997.073
997.073
997.073
997.073
997.073
997.073
997.072
997.072
997.072
997.072
997.071
997.071
997.071
997.07
997.07
997.069
997.068
997.068
997.067
997.066
997.065
997.064
997.105
997.101
997.099
997.096
997.094
997.091
997.089
997.087
997.086
997.084
997.083
997.081
997.08
997.079
997.079
997.078
997.077