/*--------------------------------*- C++ -*----------------------------------*\
  =========                 |
  \\      /  F ield         | OpenFOAM: The Open Source CFD Toolbox
   \\    /   O peration     | Website:  https://openfoam.org
    \\  /    A nd           | Version:  6
     \\/     M anipulation  |
\*---------------------------------------------------------------------------*/
FoamFile
{
    version     2.0;
    format      ascii;
    class       surfaceScalarField;
    location    "1.15";
    object      phi;
}
// * * * * * * * * * * * * * * * * * * * * * * * * * * * * * * * * * * * * * //

dimensions      [0 3 -1 0 0 0 0];

internalField   nonuniform List<scalar> 
11030
(
0.000119305
4.19692e-07
0.000119394
-8.97066e-08
0.000119222
1.72459e-07
0.000118781
4.40631e-07
0.000118374
4.07286e-07
0.000118
3.7388e-07
0.000117581
4.19313e-07
0.00011709
4.91187e-07
0.000116522
5.67451e-07
0.000115869
6.53454e-07
0.000115115
7.54194e-07
0.000114244
8.70907e-07
0.000113239
1.00473e-06
0.000112081
1.15771e-06
0.000110749
1.33236e-06
0.000109218
1.5312e-06
0.000107462
1.75603e-06
0.000105455
2.00636e-06
0.000103179
2.27615e-06
2.5443e-06
0.000100635
0.000120071
5.72187e-08
0.000119722
2.58658e-07
0.000119172
7.22743e-07
0.000118729
8.83552e-07
0.000118321
8.15524e-07
0.000117879
8.15316e-07
0.000117387
9.11895e-07
0.000116835
1.04326e-06
0.000116211
1.19149e-06
0.0001155
1.36437e-06
0.000114687
1.56747e-06
0.000113755
1.80272e-06
0.000112687
2.07273e-06
0.000111463
2.38152e-06
0.000110061
2.73389e-06
0.000108458
3.13467e-06
0.000106627
3.58729e-06
0.000104543
4.09053e-06
0.000102186
4.63219e-06
5.17445e-06
9.95563e-05
0.000119698
3.4344e-09
0.000119542
4.14714e-07
0.000119123
1.14181e-06
0.000118657
1.34986e-06
0.000118207
1.26599e-06
0.000117729
1.29252e-06
0.000117196
1.44489e-06
0.000116598
1.64205e-06
0.000115923
1.86621e-06
0.000115158
2.12878e-06
0.000114289
2.43667e-06
0.000113299
2.79258e-06
0.000112172
3.20044e-06
0.000110887
3.66616e-06
0.000109424
4.19672e-06
0.00010776
4.79912e-06
0.000105869
5.47835e-06
0.000103727
6.23263e-06
0.000101315
7.04413e-06
7.86107e-06
9.8628e-05
0.000119538
3.60382e-08
0.000119351
6.01859e-07
0.000118958
1.53484e-06
0.000118503
1.80467e-06
0.000118045
1.7243e-06
0.00011755
1.7873e-06
0.000116991
2.00386e-06
0.000116358
2.27493e-06
0.000115643
2.58164e-06
0.000114833
2.93893e-06
0.000113914
3.35523e-06
0.000112873
3.83402e-06
0.000111692
4.38052e-06
0.000110356
5.00239e-06
0.000108844
5.70864e-06
0.000107135
6.50825e-06
0.000105206
7.40772e-06
0.000103034
8.40473e-06
0.000100602
9.47619e-06
1.05586e-05
9.79041e-05
0.000119385
1.42453e-07
0.000119148
8.39502e-07
0.000118759
1.92322e-06
0.000118317
2.2473e-06
0.00011786
2.18135e-06
0.000117355
2.29181e-06
0.000116777
2.58217e-06
0.000116116
2.93591e-06
0.000115365
3.33263e-06
0.000114513
3.79026e-06
0.00011355
4.31854e-06
0.000112463
4.92161e-06
0.000111237
5.60582e-06
0.000109859
6.38045e-06
0.000108312
7.25623e-06
0.000106576
8.24391e-06
0.000104632
9.3512e-06
0.000102462
1.05753e-05
0.00010005
1.18879e-05
1.32163e-05
9.73926e-05
0.000119213
3.36253e-07
0.000118924
1.12894e-06
0.00011855
2.29708e-06
0.000118128
2.66926e-06
0.000117676
2.63284e-06
0.000117163
2.80483e-06
0.000116565
3.18038e-06
0.000115875
3.6265e-06
0.000115086
4.12088e-06
0.000114193
4.68401e-06
0.000113185
5.32662e-06
0.000112053
6.05343e-06
0.000110787
6.87181e-06
0.000109375
7.79241e-06
0.000107804
8.82742e-06
0.000106059
9.98891e-06
0.000104124
1.12855e-05
0.000101986
1.27139e-05
9.96324e-05
1.42412e-05
1.57877e-05
9.70609e-05
0.00011898
6.72091e-07
0.000118647
1.46167e-06
0.00011834
2.60437e-06
0.000117963
3.04647e-06
0.000117517
3.07897e-06
0.000116989
3.33282e-06
0.000116363
3.80668e-06
0.000115633
4.35594e-06
0.000114799
4.9553e-06
0.000113855
5.62737e-06
0.000112798
6.38421e-06
0.00011162
7.23124e-06
0.000110315
8.17684e-06
0.000108874
9.23279e-06
0.00010729
1.04123e-05
0.00010555
1.17285e-05
0.000103645
1.31904e-05
0.000101565
1.47943e-05
9.93018e-05
1.65042e-05
1.82367e-05
9.68528e-05
0.000118571
1.32003e-06
0.00011824
1.79278e-06
0.000118143
2.7015e-06
0.00011785
3.33974e-06
0.000117393
3.53596e-06
0.000116831
3.89412e-06
0.00011616
4.47778e-06
0.000115375
5.14109e-06
0.000114479
5.85087e-06
0.000113475
6.63192e-06
0.00011236
7.49909e-06
0.000111132
8.45903e-06
0.000109788
9.52109e-06
0.000108323
1.06979e-05
0.000106732
1.20032e-05
0.00010501
1.34504e-05
0.000103152
1.50488e-05
0.000101151
1.6795e-05
9.90034e-05
1.86518e-05
2.05408e-05
9.66993e-05
0.000117574
2.87125e-06
0.000117631
1.73558e-06
0.000118067
2.2656e-06
0.000117835
3.57183e-06
0.0001173
4.07079e-06
0.000116671
4.52287e-06
0.000115929
5.21951e-06
0.000115065
6.00573e-06
0.000114089
6.82639e-06
0.00011301
7.71101e-06
0.000111829
8.68015e-06
0.000110546
9.7422e-06
0.00010916
1.0907e-05
0.00010767
1.21875e-05
0.000106077
1.3597e-05
0.000104379
1.51482e-05
0.000102577
1.68503e-05
0.000100671
1.8701e-05
9.86583e-05
2.06647e-05
2.26628e-05
9.65363e-05
0.000115808
6.1635e-06
0.00011752
2.34786e-08
0.000118421
1.36396e-06
0.00011794
4.05357e-06
0.000117225
4.78584e-06
0.00011648
5.2669e-06
0.000115629
6.07114e-06
0.00011466
6.97428e-06
0.000113592
7.89473e-06
0.000112432
8.87132e-06
0.000111181
9.93077e-06
0.000109841
1.10825e-05
0.000108412
1.23359e-05
0.000106896
1.37029e-05
0.000105298
1.51953e-05
0.000103623
1.68232e-05
0.000101881
1.85928e-05
0.00010008
2.05019e-05
9.82085e-05
2.2536e-05
9.62501e-05
2.46212e-05
9.00672e-05
1.05677e-05
7.93535e-05
1.07137e-05
6.84789e-05
1.08747e-05
5.7437e-05
1.10419e-05
4.62408e-05
1.11961e-05
3.4962e-05
1.12789e-05
2.38142e-05
1.11478e-05
1.33194e-05
1.04948e-05
4.58455e-06
8.73481e-06
4.58455e-06
8.90703e-05
2.10537e-05
7.84337e-05
2.13503e-05
6.76402e-05
2.16682e-05
5.66862e-05
2.19959e-05
4.55885e-05
2.22939e-05
3.44234e-05
2.2444e-05
2.34071e-05
2.2164e-05
1.30591e-05
2.08429e-05
4.52274e-06
1.72711e-05
9.1073e-06
8.82145e-05
3.14672e-05
7.7648e-05
3.19168e-05
6.6928e-05
3.23881e-05
5.6053e-05
3.28709e-05
4.50416e-05
3.33053e-05
3.39736e-05
3.3512e-05
2.30695e-05
3.3068e-05
1.28523e-05
3.10601e-05
4.43891e-06
2.56845e-05
1.35462e-05
8.75416e-05
4.18297e-05
7.70273e-05
4.24311e-05
6.63644e-05
4.3051e-05
5.55518e-05
4.36835e-05
4.46084e-05
4.42487e-05
3.36157e-05
4.45047e-05
2.27981e-05
4.38856e-05
1.26811e-05
4.11771e-05
4.37049e-06
3.39951e-05
1.79167e-05
8.70603e-05
5.2162e-05
7.65775e-05
5.29139e-05
6.59521e-05
5.36764e-05
5.51812e-05
5.44544e-05
4.42828e-05
5.51471e-05
3.33402e-05
5.54473e-05
2.25817e-05
5.46442e-05
1.25381e-05
5.12207e-05
4.31063e-06
4.22226e-05
2.22273e-05
8.6742e-05
6.24809e-05
7.62725e-05
6.33834e-05
6.56657e-05
6.42832e-05
5.49156e-05
6.52045e-05
4.40389e-05
6.60238e-05
3.31209e-05
6.63652e-05
2.23966e-05
6.53685e-05
1.24056e-05
6.12117e-05
4.25003e-06
5.03781e-05
2.64774e-05
8.65321e-05
7.28016e-05
7.60603e-05
7.38552e-05
6.54555e-05
7.4888e-05
5.47062e-05
7.59538e-05
4.38284e-05
7.69016e-05
3.29126e-05
7.72811e-05
2.22036e-05
7.60775e-05
1.22551e-05
7.11602e-05
4.17451e-06
5.84587e-05
3.06519e-05
8.63552e-05
8.31457e-05
7.58643e-05
8.43461e-05
6.52458e-05
8.55065e-05
5.44776e-05
8.67221e-05
4.35789e-05
8.78002e-05
3.26491e-05
8.82109e-05
2.19486e-05
8.6778e-05
1.20492e-05
8.10597e-05
4.06557e-06
6.64423e-05
3.47174e-05
8.60983e-05
9.35836e-05
7.55662e-05
9.48782e-05
6.49159e-05
9.61567e-05
5.41119e-05
9.75262e-05
4.31838e-05
9.87283e-05
3.22416e-05
9.9153e-05
2.15639e-05
9.74557e-05
1.17407e-05
9.08828e-05
3.89726e-06
7.42858e-05
3.86147e-05
8.55066e-05
0.000104327
7.49462e-05
0.000105439
6.42491e-05
0.000106854
5.34167e-05
0.000108359
4.24859e-05
0.000109659
3.15712e-05
0.000110068
2.09635e-05
0.000108064
1.12637e-05
0.000100583
3.61722e-06
8.19322e-05
4.22319e-05
3.28251e-05
0.000109956
-3.84535e-05
2.72268e-05
0.000111037
2.17156e-05
0.000112365
1.63403e-05
0.000113734
1.12513e-05
0.000114748
6.7139e-06
0.000114605
3.09753e-06
0.00011168
7.81859e-07
0.000102898
-8.5635e-08
8.27997e-05
4.21463e-05
2.66351e-05
0.00011501
-3.16892e-05
2.15665e-05
0.000116105
1.65935e-05
0.000117338
1.18286e-05
0.000118499
7.44111e-06
0.000119136
3.69596e-06
0.00011835
9.33549e-07
0.000114442
-5.28112e-07
0.00010436
-6.32333e-07
8.2904e-05
4.15139e-05
2.0462e-05
0.000119522
-2.49743e-05
1.59438e-05
0.000120624
1.15506e-05
0.000121731
7.42435e-06
0.000122625
3.75877e-06
0.000122801
8.20677e-07
0.000121288
-1.07811e-06
0.000116341
-1.68683e-06
0.000104969
-1.05921e-06
8.22763e-05
4.04547e-05
1.43677e-05
0.0001235
-1.83461e-05
1.04193e-05
0.000124572
6.63268e-06
0.000125518
3.17096e-06
0.000126087
2.46062e-07
0.000125726
-1.87631e-06
0.000123411
-2.9162e-06
0.000117381
-2.69748e-06
0.00010475
-1.39953e-06
8.09784e-05
3.90552e-05
8.39848e-06
0.000126944
-1.18422e-05
5.02971e-06
0.000127941
1.87011e-06
0.000128677
-9.04155e-07
0.000128861
-3.07134e-06
0.000127893
-4.374e-06
0.000124713
-4.57107e-06
0.000117578
-3.56758e-06
0.000103747
-1.669e-06
7.90798e-05
3.73862e-05
2.58506e-06
0.00012985
-5.49134e-06
-1.96019e-07
0.000130722
-2.71274e-06
0.000131194
-4.78122e-06
0.00013093
-6.17805e-06
0.00012929
-6.66255e-06
0.000125198
-6.04075e-06
0.000116956
-4.3037e-06
0.000102009
-1.87627e-06
7.66524e-05
3.55099e-05
-3.05198e-06
0.000132214
6.87895e-07
-5.23695e-06
0.000132907
-7.09706e-06
0.000133054
-8.44509e-06
0.000132278
-9.06361e-06
0.000129909
-8.73737e-06
0.000124872
-7.32739e-06
0.000115546
-4.91357e-06
9.95956e-05
-2.02956e-06
7.37684e-05
3.34804e-05
-8.50092e-06
0.000134029
6.68588e-06
-1.00795e-05
0.000134485
-1.12693e-05
0.000134244
-1.18841e-05
0.000132892
-1.17199e-05
0.000129744
-1.05954e-05
0.000123747
-8.43403e-06
0.000113385
-5.40499e-06
9.65666e-05
-2.13624e-06
7.04996e-05
3.13441e-05
-1.37555e-05
0.000135286
1.24986e-05
-1.47135e-05
0.000135443
-1.5216e-05
0.000134747
-1.50833e-05
0.00013276
-1.41329e-05
0.000128794
-1.22274e-05
0.000121842
-9.35956e-06
0.000110517
-5.78479e-06
9.29918e-05
-2.20406e-06
6.69189e-05
2.91401e-05
-1.88057e-05
1.81304e-05
0.000135962
-1.91123e-05
0.00013575
-1.88969e-05
0.000134531
-1.79954e-05
0.000131858
-1.6258e-05
0.000127057
-1.36025e-05
0.000119186
-1.00944e-05
0.000107009
-6.06327e-06
8.89607e-05
-2.25029e-06
6.31059e-05
2.68898e-05
8.45197e-05
-3.90558e-05
-8.39173e-05
8.53463e-05
-3.25159e-05
8.63706e-05
-2.59986e-05
8.75355e-05
-1.9511e-05
8.87997e-05
-1.31063e-05
9.01153e-05
-6.807e-06
9.14315e-05
-6.28317e-07
9.26977e-05
5.41971e-06
9.38662e-05
1.133e-05
1.71148e-05
9.48819e-05
8.53034e-05
-3.94794e-05
-8.48797e-05
8.59187e-05
-3.31313e-05
8.67318e-05
-2.68116e-05
8.76995e-05
-2.04788e-05
8.87841e-05
-1.41909e-05
8.99448e-05
-7.96768e-06
9.11381e-05
-1.82163e-06
9.23207e-05
4.23708e-06
9.3451e-05
1.01997e-05
1.60824e-05
9.44834e-05
8.59649e-05
-3.96963e-05
-8.5748e-05
8.63915e-05
-3.35579e-05
8.70111e-05
-2.74312e-05
8.77933e-05
-2.12609e-05
8.87053e-05
-1.5103e-05
8.97131e-05
-8.97545e-06
9.07805e-05
-2.88907e-06
9.18716e-05
3.14605e-06
9.29509e-05
9.12037e-06
1.5051e-05
9.39823e-05
8.6533e-05
-3.97608e-05
-8.64685e-05
8.67964e-05
-3.38213e-05
8.72432e-05
-2.7878e-05
8.78532e-05
-2.18709e-05
8.86008e-05
-1.58506e-05
8.9459e-05
-9.8336e-06
9.03989e-05
-3.82906e-06
9.13917e-05
2.1533e-06
9.24082e-05
8.10388e-06
1.40394e-05
9.34198e-05
8.70015e-05
-3.97041e-05
-8.70581e-05
8.71278e-05
-3.39477e-05
8.74249e-05
-2.81751e-05
8.78812e-05
-2.23271e-05
8.84782e-05
-1.64476e-05
8.91956e-05
-1.05511e-05
9.00118e-05
-4.64522e-06
9.09041e-05
1.26098e-06
9.18495e-05
7.15847e-06
1.30631e-05
9.28258e-05
8.7371e-05
-3.95416e-05
-8.75335e-05
8.73796e-05
-3.39563e-05
8.75482e-05
-2.83437e-05
8.78706e-05
-2.26496e-05
8.83343e-05
-1.69113e-05
8.89245e-05
-1.11413e-05
8.96253e-05
-5.34606e-06
9.042e-05
4.66286e-07
9.12909e-05
6.2876e-06
1.2133e-05
9.22211e-05
8.76503e-05
-3.92845e-05
-8.79074e-05
8.75558e-05
-3.38618e-05
8.76136e-05
-2.84014e-05
8.78205e-05
-2.28566e-05
8.81679e-05
-1.72587e-05
8.86454e-05
-1.16187e-05
8.92416e-05
-5.94231e-06
8.99446e-05
-2.36704e-07
9.07413e-05
5.49093e-06
1.1255e-05
9.16193e-05
8.78501e-05
-3.89429e-05
-8.81917e-05
8.76648e-05
-3.36765e-05
8.76264e-05
-2.8363e-05
8.77334e-05
-2.29636e-05
8.79799e-05
-1.75051e-05
8.83584e-05
-1.19973e-05
8.88612e-05
-6.44514e-06
8.948e-05
-8.5544e-07
9.02053e-05
4.76558e-06
1.04318e-05
9.10286e-05
8.79811e-05
-3.85256e-05
-8.83983e-05
8.77155e-05
-3.34109e-05
8.7593e-05
-2.82406e-05
8.76133e-05
-2.29839e-05
8.7772e-05
-1.76638e-05
8.8064e-05
-1.22893e-05
8.84841e-05
-6.86519e-06
8.90265e-05
-1.39785e-06
8.96849e-05
4.10717e-06
9.66311e-06
9.04535e-05
8.80535e-05
-3.80409e-05
-8.85383e-05
8.77166e-05
-3.3074e-05
8.75204e-05
-2.80443e-05
8.74648e-05
-2.29283e-05
8.7547e-05
-1.7746e-05
8.77632e-05
-1.25055e-05
8.81101e-05
-7.21207e-06
8.85839e-05
-1.87166e-06
8.91804e-05
3.51064e-06
8.94734e-06
8.98962e-05
8.80768e-05
-3.74957e-05
-8.86219e-05
8.76765e-05
-3.26737e-05
8.7415e-05
-2.77828e-05
8.72928e-05
-2.28061e-05
8.73078e-05
-1.7761e-05
8.74575e-05
-1.26552e-05
8.77397e-05
-7.49425e-06
8.8152e-05
-2.28399e-06
8.86919e-05
2.97077e-06
8.28174e-06
8.93575e-05
8.80593e-05
-3.68967e-05
-8.86583e-05
8.76025e-05
-3.2217e-05
8.72832e-05
-2.74636e-05
8.71021e-05
-2.2625e-05
8.70578e-05
-1.77167e-05
8.71488e-05
-1.27462e-05
8.73735e-05
-7.71899e-06
8.77307e-05
-2.64121e-06
8.8219e-05
2.48254e-06
7.66314e-06
8.88376e-05
8.80084e-05
-3.62495e-05
-8.86555e-05
8.75012e-05
-3.17098e-05
8.71304e-05
-2.70928e-05
8.6897e-05
-2.23916e-05
8.68001e-05
-1.76198e-05
8.68388e-05
-1.27848e-05
8.70123e-05
-7.89252e-06
8.73201e-05
-2.94893e-06
8.77613e-05
2.04134e-06
7.08824e-06
8.83362e-05
8.79305e-05
-3.55592e-05
-8.86208e-05
8.73782e-05
-3.11576e-05
8.69615e-05
-2.66761e-05
8.66814e-05
-2.21115e-05
8.65375e-05
-1.7476e-05
8.65296e-05
-1.27769e-05
8.66572e-05
-8.02015e-06
8.69203e-05
-3.21198e-06
8.73186e-05
1.64301e-06
6.55384e-06
8.7853e-05
8.78311e-05
-3.48303e-05
-8.856e-05
8.72385e-05
-3.0565e-05
8.67806e-05
-2.62182e-05
8.64586e-05
-2.17895e-05
8.62727e-05
-1.72901e-05
8.62228e-05
-1.2727e-05
8.63091e-05
-8.10642e-06
8.65317e-05
-3.43459e-06
8.68908e-05
1.28384e-06
6.05693e-06
8.73877e-05
8.7715e-05
-3.40667e-05
-8.84786e-05
8.70861e-05
-2.99361e-05
8.65911e-05
-2.57232e-05
8.62315e-05
-2.14298e-05
8.60077e-05
-1.70663e-05
8.592e-05
-1.26393e-05
8.59688e-05
-8.15526e-06
8.61547e-05
-3.6204e-06
8.6478e-05
9.60542e-07
5.59473e-06
8.69401e-05
8.7586e-05
-3.32718e-05
-8.83808e-05
8.69245e-05
-2.92745e-05
8.63961e-05
-2.51949e-05
8.60026e-05
-2.10363e-05
8.57445e-05
-1.68082e-05
8.56226e-05
-1.25174e-05
8.56374e-05
-8.17007e-06
8.57896e-05
-3.77263e-06
8.60799e-05
6.70211e-07
5.16473e-06
8.651e-05
8.74475e-05
-3.24488e-05
-8.82704e-05
8.67565e-05
-2.85836e-05
8.61981e-05
-2.46365e-05
8.57738e-05
-2.0612e-05
8.54847e-05
-1.65191e-05
8.53317e-05
-1.23643e-05
8.53154e-05
-8.15384e-06
8.54369e-05
-3.89406e-06
8.56968e-05
4.1026e-07
4.76461e-06
8.60969e-05
8.73022e-05
-3.16005e-05
-8.81506e-05
8.65847e-05
-2.78661e-05
8.5999e-05
-2.40508e-05
8.55469e-05
-2.01599e-05
8.52296e-05
-1.62018e-05
8.50482e-05
-1.21828e-05
8.50035e-05
-8.1092e-06
8.50967e-05
-3.98721e-06
8.53286e-05
1.78372e-07
4.39229e-06
8.57009e-05
8.71525e-05
-3.07292e-05
-8.80238e-05
8.6411e-05
-2.71247e-05
8.58006e-05
-2.34404e-05
8.53233e-05
-1.96826e-05
8.49803e-05
-1.58588e-05
8.47729e-05
-1.19754e-05
8.47022e-05
-8.03852e-06
8.47693e-05
-4.0543e-06
8.49752e-05
-2.7536e-08
4.04584e-06
8.53216e-05
8.70003e-05
-2.98371e-05
-8.78923e-05
8.62371e-05
-2.63614e-05
8.56043e-05
-2.28076e-05
8.51039e-05
-1.91822e-05
8.47375e-05
-1.54924e-05
8.45063e-05
-1.17443e-05
8.44117e-05
-7.94389e-06
8.44547e-05
-4.09734e-06
8.46366e-05
-2.09354e-07
3.72351e-06
8.49589e-05
8.68472e-05
-2.89263e-05
-8.7758e-05
8.60643e-05
-2.55785e-05
8.54111e-05
-2.21545e-05
8.48898e-05
-1.86609e-05
8.45019e-05
-1.51046e-05
8.4249e-05
-1.14913e-05
8.41323e-05
-7.82721e-06
8.41531e-05
-4.11815e-06
8.43126e-05
-3.68804e-07
3.4237e-06
8.46124e-05
8.66946e-05
-2.79985e-05
-8.76224e-05
8.58938e-05
-2.47777e-05
8.52221e-05
-2.14828e-05
8.46817e-05
-1.81204e-05
8.42742e-05
-1.46971e-05
8.40012e-05
-1.12184e-05
8.38642e-05
-7.69021e-06
8.38644e-05
-4.11837e-06
8.40031e-05
-5.07466e-07
3.14489e-06
8.42819e-05
8.65436e-05
-2.70553e-05
-8.74868e-05
8.57265e-05
-2.39607e-05
8.5038e-05
-2.07942e-05
8.448e-05
-1.75625e-05
8.40546e-05
-1.42716e-05
8.37632e-05
-1.0927e-05
8.36074e-05
-7.53445e-06
8.35886e-05
-4.09954e-06
8.37079e-05
-6.26796e-07
2.8857e-06
8.39671e-05
8.63951e-05
-2.6098e-05
-8.73523e-05
8.55633e-05
-2.31289e-05
8.48593e-05
-2.00902e-05
8.42854e-05
-1.69886e-05
8.38434e-05
-1.38296e-05
8.35351e-05
-1.06187e-05
8.3362e-05
-7.36136e-06
8.33255e-05
-4.06302e-06
8.34269e-05
-7.28136e-07
2.64484e-06
8.36677e-05
8.625e-05
-2.51281e-05
-8.72199e-05
8.54047e-05
-2.22837e-05
8.46867e-05
-1.93722e-05
8.40981e-05
-1.64e-05
8.3641e-05
-1.33725e-05
8.33171e-05
-1.02948e-05
8.3128e-05
-7.17224e-06
8.30751e-05
-4.01012e-06
8.31597e-05
-8.12733e-07
2.42109e-06
8.33834e-05
8.61088e-05
-2.41466e-05
-8.70903e-05
8.52513e-05
-2.14262e-05
8.45204e-05
-1.86413e-05
8.39184e-05
-1.5798e-05
8.34474e-05
-1.29014e-05
8.31091e-05
-9.9565e-06
8.29052e-05
-6.96832e-06
8.2837e-05
-3.94201e-06
8.29061e-05
-8.81743e-07
2.21333e-06
8.31138e-05
8.59721e-05
-2.31546e-05
-8.69641e-05
8.51035e-05
-2.05576e-05
8.43609e-05
-1.78987e-05
8.37466e-05
-1.51837e-05
8.32627e-05
-1.24176e-05
8.29111e-05
-9.60493e-06
8.26935e-05
-6.75069e-06
8.26113e-05
-3.85978e-06
8.26658e-05
-9.36249e-07
2.02049e-06
8.28586e-05
8.58404e-05
-2.21531e-05
-8.68419e-05
8.49616e-05
-1.96788e-05
8.42082e-05
-1.71453e-05
8.35827e-05
-1.45582e-05
8.3087e-05
-1.19219e-05
8.27232e-05
-9.24111e-06
8.24929e-05
-6.52037e-06
8.23976e-05
-3.76445e-06
8.24386e-05
-9.77254e-07
1.84158e-06
8.26175e-05
8.57139e-05
-2.11429e-05
-8.67241e-05
8.48259e-05
-1.87907e-05
8.40627e-05
-1.63822e-05
8.34268e-05
-1.39223e-05
8.29203e-05
-1.14155e-05
8.25452e-05
-8.86599e-06
8.23031e-05
-6.27832e-06
8.21957e-05
-3.65697e-06
8.22241e-05
-1.0057e-06
1.67565e-06
8.239e-05
8.55931e-05
-2.01248e-05
-8.66112e-05
8.46966e-05
-1.78942e-05
8.39244e-05
-1.561e-05
8.3279e-05
-1.32769e-05
8.27626e-05
-1.0899e-05
8.2377e-05
-8.48044e-06
8.21241e-05
-6.02541e-06
8.20054e-05
-3.53821e-06
8.20221e-05
-1.02247e-06
1.52182e-06
8.2176e-05
8.54781e-05
-1.90996e-05
-8.65033e-05
8.45739e-05
-1.699e-05
8.37935e-05
-1.48296e-05
8.31394e-05
-1.26228e-05
8.26138e-05
-1.03734e-05
8.22186e-05
-8.08528e-06
8.19557e-05
-5.76245e-06
8.18265e-05
-3.40901e-06
8.18324e-05
-1.02838e-06
1.37926e-06
8.19749e-05
8.5369e-05
-1.80678e-05
-8.64008e-05
8.44578e-05
-1.60788e-05
8.367e-05
-1.40418e-05
8.30079e-05
-1.19607e-05
8.24738e-05
-9.83936e-06
8.20698e-05
-7.68125e-06
8.17976e-05
-5.49022e-06
8.16587e-05
-3.27012e-06
8.16545e-05
-1.02422e-06
1.24719e-06
8.17866e-05
8.52662e-05
-1.70302e-05
-8.63038e-05
8.43486e-05
-1.51612e-05
8.35539e-05
-1.3247e-05
8.28845e-05
-1.12913e-05
8.23427e-05
-9.29756e-06
8.19305e-05
-7.26905e-06
8.16497e-05
-5.2094e-06
8.15018e-05
-3.12226e-06
8.14883e-05
-1.01072e-06
1.12485e-06
8.16107e-05
8.51696e-05
-1.59873e-05
-8.62125e-05
8.42462e-05
-1.42379e-05
8.34452e-05
-1.24461e-05
8.27692e-05
-1.06153e-05
8.22203e-05
-8.74865e-06
8.18005e-05
-6.84933e-06
8.15118e-05
-4.92068e-06
8.13557e-05
-2.96612e-06
8.13335e-05
-9.8856e-07
1.01155e-06
8.14468e-05
8.50793e-05
-1.49395e-05
-8.6127e-05
8.41507e-05
-1.33093e-05
8.3344e-05
-1.16394e-05
8.26618e-05
-9.93311e-06
8.21064e-05
-8.19322e-06
8.16798e-05
-6.4227e-06
8.13838e-05
-4.62467e-06
8.122e-05
-2.80232e-06
8.11898e-05
-9.58394e-07
9.06622e-07
8.12948e-05
8.49954e-05
-1.38875e-05
-8.60474e-05
8.4062e-05
-1.23759e-05
8.32502e-05
-1.08276e-05
8.25625e-05
-9.24536e-06
8.20011e-05
-7.63183e-06
8.15681e-05
-5.98973e-06
8.12654e-05
-4.32196e-06
8.10946e-05
-2.63148e-06
8.1057e-05
-9.20844e-07
8.09423e-07
8.11542e-05
8.49178e-05
-1.28316e-05
-8.59738e-05
8.39802e-05
-1.14383e-05
8.31638e-05
-1.00111e-05
8.2471e-05
-8.55256e-06
8.19041e-05
-7.06499e-06
8.14653e-05
-5.55096e-06
8.11565e-05
-4.0131e-06
8.09792e-05
-2.45416e-06
8.09348e-05
-8.76493e-07
7.19348e-07
8.10249e-05
8.48467e-05
-1.17722e-05
-8.59061e-05
8.39053e-05
-1.04969e-05
8.30846e-05
-9.19046e-06
8.23872e-05
-7.85516e-06
8.18154e-05
-6.49322e-06
8.13714e-05
-5.10689e-06
8.10569e-05
-3.69862e-06
8.08736e-05
-2.2709e-06
8.0823e-05
-8.25901e-07
6.35819e-07
8.09066e-05
8.4782e-05
-1.07098e-05
-8.58444e-05
8.38371e-05
-9.55204e-06
8.30127e-05
-8.36599e-06
8.23111e-05
-7.15363e-06
8.17349e-05
-5.91696e-06
8.1286e-05
-4.65802e-06
8.09664e-05
-3.37902e-06
8.07777e-05
-2.08222e-06
8.07214e-05
-7.69603e-07
5.58278e-07
8.0799e-05
8.47235e-05
-9.64476e-06
-8.57886e-05
8.37757e-05
-8.60419e-06
8.29479e-05
-7.53817e-06
8.22426e-05
-6.44841e-06
8.16624e-05
-5.33667e-06
8.12091e-05
-4.20481e-06
8.08849e-05
-3.05477e-06
8.06913e-05
-1.88861e-06
8.06298e-05
-7.08115e-07
4.86191e-07
8.07019e-05
8.46714e-05
-8.5774e-06
-8.57387e-05
8.37209e-05
-7.65371e-06
8.28901e-05
-6.70739e-06
8.21816e-05
-5.7399e-06
8.15977e-05
-4.75279e-06
8.11406e-05
-3.74769e-06
8.08122e-05
-2.72634e-06
8.06141e-05
-1.69056e-06
8.05479e-05
-6.41931e-07
4.19038e-07
8.06151e-05
8.46254e-05
-7.50812e-06
-8.56947e-05
8.36727e-05
-6.701e-06
8.28393e-05
-5.87405e-06
8.21279e-05
-5.0285e-06
8.15409e-05
-4.16572e-06
8.10803e-05
-3.2871e-06
8.07481e-05
-2.39417e-06
8.05461e-05
-1.48851e-06
8.04757e-05
-5.71534e-07
3.56314e-07
8.05384e-05
8.45855e-05
-6.43729e-06
-8.56563e-05
8.36309e-05
-5.74642e-06
8.27954e-05
-5.03852e-06
8.20815e-05
-4.31463e-06
8.14917e-05
-3.57587e-06
8.1028e-05
-2.82346e-06
8.06925e-05
-2.05869e-06
8.0487e-05
-1.28294e-06
8.04128e-05
-4.97392e-07
2.97525e-07
8.04716e-05
8.45516e-05
-5.36527e-06
-8.56236e-05
8.35956e-05
-4.79035e-06
8.27582e-05
-4.2012e-06
8.20422e-05
-3.59864e-06
8.145e-05
-2.98363e-06
8.09837e-05
-2.35717e-06
8.06453e-05
-1.72033e-06
8.04367e-05
-1.07426e-06
8.03593e-05
-4.1997e-07
2.42186e-07
8.04146e-05
8.45237e-05
-4.29243e-06
-8.55965e-05
8.35665e-05
-3.83316e-06
8.27277e-05
-3.36243e-06
8.201e-05
-2.88093e-06
8.14158e-05
-2.38939e-06
8.09472e-05
-1.88862e-06
8.06064e-05
-1.3795e-06
8.03951e-05
-8.62929e-07
8.03148e-05
-3.39728e-07
1.89809e-07
8.03672e-05
8.45016e-05
-3.21916e-06
-8.55749e-05
8.35436e-05
-2.87519e-06
8.27038e-05
-2.52259e-06
8.19847e-05
-2.16184e-06
8.13888e-05
-1.79352e-06
8.09184e-05
-1.41823e-06
8.05755e-05
-1.03662e-06
8.0362e-05
-6.49379e-07
8.02794e-05
-2.57128e-07
1.39906e-07
8.03293e-05
8.44853e-05
-2.14578e-06
-8.55587e-05
8.35269e-05
-1.91681e-06
8.26863e-05
-1.68202e-06
8.19662e-05
-1.44175e-06
8.13691e-05
-1.1964e-06
8.08973e-05
-9.46374e-07
8.05527e-05
-6.92105e-07
8.03374e-05
-4.34058e-07
8.02529e-05
-1.72641e-07
9.19808e-08
8.03009e-05
8.44747e-05
-1.07263e-06
-8.55478e-05
8.35162e-05
-9.58312e-07
8.26752e-05
-8.41044e-07
8.19545e-05
-7.21014e-07
8.13565e-05
-5.98425e-07
8.08836e-05
-4.73483e-07
8.05379e-05
-3.46409e-07
8.03213e-05
-2.17432e-07
8.02354e-05
-8.67587e-08
4.55223e-08
8.02819e-05
8.44697e-05
-8.55423e-05
8.35114e-05
8.26703e-05
8.19493e-05
8.13509e-05
8.08774e-05
8.0531e-05
8.03136e-05
8.02268e-05
8.02723e-05
8.43686e-05
3.97821e-06
8.31825e-05
1.20961e-06
8.26125e-05
1.934e-06
8.28168e-05
3.84926e-06
8.28724e-05
4.73021e-06
8.27686e-05
5.37073e-06
8.26514e-05
6.18831e-06
8.25394e-05
7.08628e-06
8.24204e-05
8.01374e-06
8.22974e-05
8.99432e-06
8.21799e-05
1.00482e-05
8.20776e-05
1.11848e-05
8.20008e-05
1.24127e-05
8.1962e-05
1.37417e-05
8.19767e-05
1.51806e-05
8.20637e-05
1.67362e-05
8.22462e-05
1.84103e-05
8.25565e-05
2.01916e-05
8.30614e-05
2.20311e-05
2.37652e-05
8.39954e-05
2.26198e-06
8.33537e-05
1.85131e-06
8.28731e-05
2.4146e-06
8.29492e-05
3.77316e-06
8.29834e-05
4.69601e-06
8.29132e-05
5.44088e-06
8.28322e-05
6.26937e-06
8.27581e-05
7.16035e-06
8.26844e-05
8.08746e-06
8.26142e-05
9.06449e-06
8.25562e-05
1.01062e-05
8.25196e-05
1.12214e-05
8.25151e-05
1.24173e-05
8.25553e-05
1.37014e-05
8.26559e-05
1.508e-05
8.28357e-05
1.65564e-05
8.31182e-05
1.81278e-05
8.35328e-05
1.97771e-05
8.41154e-05
2.14485e-05
2.30009e-05
8.31295e-05
1.45251e-06
8.30721e-05
1.90874e-06
8.28777e-05
2.60904e-06
8.29279e-05
3.72292e-06
8.29796e-05
4.64436e-06
8.29674e-05
5.45309e-06
8.29388e-05
6.29791e-06
8.29124e-05
7.18674e-06
8.28891e-05
8.11082e-06
8.28735e-05
9.08006e-06
8.28741e-05
1.01057e-05
8.29001e-05
1.11953e-05
8.29623e-05
1.23551e-05
8.3073e-05
1.35907e-05
8.32473e-05
1.49057e-05
8.35027e-05
1.6301e-05
8.38595e-05
1.7771e-05
8.43401e-05
1.92965e-05
8.49648e-05
2.08238e-05
2.22176e-05
8.27364e-05
1.05992e-06
8.27914e-05
1.85371e-06
8.2759e-05
2.64148e-06
8.28389e-05
3.64292e-06
8.2921e-05
4.56229e-06
8.29626e-05
5.41149e-06
8.29881e-05
6.27238e-06
8.30127e-05
7.16222e-06
8.3041e-05
8.08244e-06
8.30795e-05
9.04157e-06
8.31365e-05
1.00487e-05
8.32214e-05
1.11104e-05
8.33445e-05
1.2232e-05
8.3518e-05
1.34172e-05
8.37555e-05
1.46682e-05
8.40728e-05
1.59837e-05
8.44872e-05
1.73566e-05
8.50163e-05
1.87674e-05
8.56745e-05
2.01656e-05
2.14236e-05
8.25403e-05
8.81195e-07
8.26107e-05
1.78323e-06
8.26502e-05
2.60206e-06
8.27469e-05
3.54616e-06
8.28499e-05
4.45933e-06
8.29321e-05
5.32932e-06
8.30036e-05
6.20084e-06
8.30747e-05
7.09109e-06
8.31513e-05
8.00582e-06
8.32401e-05
8.95279e-06
8.33492e-05
9.93961e-06
8.34876e-05
1.0972e-05
8.36654e-05
1.20542e-05
8.38937e-05
1.3189e-05
8.4185e-05
1.43769e-05
8.45532e-05
1.56155e-05
8.50128e-05
1.6897e-05
8.5578e-05
1.82023e-05
8.62592e-05
1.94845e-05
2.06246e-05
8.24544e-05
8.03415e-07
8.25146e-05
1.72299e-06
8.25773e-05
2.53938e-06
8.26777e-05
3.44575e-06
8.27908e-05
4.34622e-06
8.28991e-05
5.22108e-06
8.30049e-05
6.09503e-06
8.31142e-05
6.9818e-06
8.32321e-05
7.8879e-06
8.33648e-05
8.8201e-06
8.35197e-05
9.78473e-06
8.37051e-05
1.07866e-05
8.39302e-05
1.18291e-05
8.42054e-05
1.29138e-05
8.45416e-05
1.40406e-05
8.4951e-05
1.52061e-05
8.54458e-05
1.64022e-05
8.60372e-05
1.76108e-05
8.67332e-05
1.87885e-05
1.98242e-05
8.24258e-05
7.68244e-07
8.24734e-05
1.67538e-06
8.25393e-05
2.47353e-06
8.26368e-05
3.34821e-06
8.27528e-05
4.23019e-06
8.28758e-05
5.09808e-06
8.30049e-05
5.96593e-06
8.3143e-05
6.8437e-06
8.3294e-05
7.73697e-06
8.34629e-05
8.6512e-06
8.36561e-05
9.59148e-06
8.38811e-05
1.05616e-05
8.41461e-05
1.15641e-05
8.44601e-05
1.25998e-05
8.48329e-05
1.36678e-05
8.52748e-05
1.47642e-05
8.5796e-05
1.5881e-05
8.64057e-05
1.70011e-05
8.71099e-05
1.80843e-05
1.90268e-05
8.24236e-05
7.4889e-07
8.24635e-05
1.63549e-06
8.25272e-05
2.40989e-06
8.26202e-05
3.25518e-06
8.27356e-05
4.11475e-06
8.28663e-05
4.96747e-06
8.30103e-05
5.82191e-06
8.31689e-05
6.68506e-06
8.33449e-05
7.56102e-06
8.35422e-05
8.4539e-06
8.37661e-05
9.3675e-06
8.40231e-05
1.03047e-05
8.43202e-05
1.1267e-05
8.46653e-05
1.22547e-05
8.50668e-05
1.32663e-05
8.55334e-05
1.42976e-05
8.60736e-05
1.53408e-05
8.66948e-05
1.63798e-05
8.74016e-05
1.73775e-05
1.82367e-05
8.24327e-05
7.33954e-07
8.24698e-05
1.59841e-06
8.25313e-05
2.34834e-06
8.26207e-05
3.16575e-06
8.27348e-05
4.00072e-06
8.28692e-05
4.83301e-06
8.30226e-05
5.66856e-06
8.31954e-05
6.51226e-06
8.33895e-05
7.36687e-06
8.36082e-05
8.23521e-06
8.38558e-05
9.11992e-06
8.41376e-05
1.00229e-05
8.44596e-05
1.0945e-05
8.48285e-05
1.18858e-05
8.52514e-05
1.28433e-05
8.57357e-05
1.38134e-05
8.62882e-05
1.47883e-05
8.6915e-05
1.5753e-05
8.76194e-05
1.66731e-05
1.74578e-05
8.2446e-05
7.18995e-07
8.24833e-05
1.5611e-06
8.25442e-05
2.28738e-06
8.26318e-05
3.07818e-06
8.27449e-05
3.88757e-06
8.28816e-05
4.69634e-06
8.30409e-05
5.50924e-06
8.32233e-05
6.32986e-06
8.34304e-05
7.15985e-06
8.36646e-05
8.001e-06
8.39295e-05
8.85496e-06
8.42297e-05
9.72279e-06
8.457e-05
1.06047e-05
8.49562e-05
1.14996e-05
8.53941e-05
1.24054e-05
8.58898e-05
1.33177e-05
8.64489e-05
1.42291e-05
8.70762e-05
1.51257e-05
8.7774e-05
1.59754e-05
1.66935e-05
8.24604e-05
7.02602e-07
8.24994e-05
1.52212e-06
8.2561e-05
2.22572e-06
8.26483e-05
2.99089e-06
8.27615e-05
3.77437e-06
8.28999e-05
4.55797e-06
8.30633e-05
5.34587e-06
8.32522e-05
6.1409e-06
8.34681e-05
6.94393e-06
8.37132e-05
7.75591e-06
8.39904e-05
8.57774e-06
8.43034e-05
9.40978e-06
8.46565e-05
1.02516e-05
8.50542e-05
1.11019e-05
8.55014e-05
1.19582e-05
8.60032e-05
1.2816e-05
8.65639e-05
1.36684e-05
8.71874e-05
1.45022e-05
8.78748e-05
1.52879e-05
1.59464e-05
8.24748e-05
6.84585e-07
8.25158e-05
1.48104e-06
8.2579e-05
2.16261e-06
8.2667e-05
2.90281e-06
8.2781e-05
3.66038e-06
8.2921e-05
4.41799e-06
8.30873e-05
5.17957e-06
8.32807e-05
5.94746e-06
8.35027e-05
6.722e-06
8.37551e-05
7.50353e-06
8.40404e-05
8.29238e-06
8.43618e-05
9.08836e-06
8.47228e-05
9.89064e-06
8.51272e-05
1.06975e-05
8.55791e-05
1.15063e-05
8.60822e-05
1.23128e-05
8.66404e-05
1.31102e-05
8.72563e-05
1.38863e-05
8.79306e-05
1.46137e-05
1.52186e-05
8.24886e-05
6.65176e-07
8.25317e-05
1.43796e-06
8.25965e-05
2.09778e-06
8.26859e-05
2.81339e-06
8.28011e-05
3.54515e-06
8.29427e-05
4.27645e-06
8.31112e-05
5.01105e-06
8.33077e-05
5.75096e-06
8.35335e-05
6.49615e-06
8.37905e-05
7.24658e-06
8.40808e-05
8.00209e-06
8.4407e-05
8.76214e-06
8.47721e-05
9.52554e-06
8.51793e-05
1.02904e-05
8.56317e-05
1.10539e-05
8.61326e-05
1.18119e-05
8.66848e-05
1.2558e-05
8.72902e-05
1.32809e-05
8.79488e-05
1.39551e-05
1.45119e-05
8.25017e-05
6.44701e-07
8.25465e-05
1.39318e-06
8.2613e-05
2.03131e-06
8.27038e-05
2.72252e-06
8.28204e-05
3.42857e-06
8.29634e-05
4.1335e-06
8.31336e-05
4.84087e-06
8.33321e-05
5.55247e-06
8.35602e-05
6.26799e-06
8.38197e-05
6.98711e-06
8.41124e-05
7.70938e-06
8.44406e-05
8.43393e-06
8.48068e-05
9.15938e-06
8.52135e-05
9.88369e-06
8.56634e-05
1.0604e-05
8.61589e-05
1.13163e-05
8.67024e-05
1.20146e-05
8.72949e-05
1.26883e-05
8.79362e-05
1.33138e-05
1.38274e-05
8.25142e-05
6.23466e-07
8.25603e-05
1.34709e-06
8.26281e-05
1.96344e-06
8.27203e-05
2.63033e-06
8.28381e-05
3.31079e-06
8.29822e-05
3.98942e-06
8.31535e-05
4.66958e-06
8.33531e-05
5.35285e-06
8.35823e-05
6.03876e-06
8.38427e-05
6.72676e-06
8.41359e-05
7.41617e-06
8.44638e-05
8.10596e-06
8.48287e-05
8.79457e-06
8.52324e-05
9.47991e-06
8.56773e-05
1.01591e-05
8.61652e-05
1.08284e-05
8.66978e-05
1.14821e-05
8.72758e-05
1.21103e-05
8.78984e-05
1.26913e-05
1.31657e-05
8.2526e-05
6.01725e-07
8.2573e-05
1.30008e-06
8.26419e-05
1.89455e-06