/*--------------------------------*- C++ -*----------------------------------*\
  =========                 |
  \\      /  F ield         | OpenFOAM: The Open Source CFD Toolbox
   \\    /   O peration     | Website:  https://openfoam.org
    \\  /    A nd           | Version:  6
     \\/     M anipulation  |
\*---------------------------------------------------------------------------*/
FoamFile
{
    version     2.0;
    format      ascii;
    class       volVectorField;
    location    "1.15";
    object      U;
}
// * * * * * * * * * * * * * * * * * * * * * * * * * * * * * * * * * * * * * //

dimensions      [0 1 -1 0 0 0 0];

internalField   nonuniform List<vector> 
5600
(
(2.00672 0.00598059 3.73693e-19)
(1.24078 0.0067729 -6.42628e-18)
(0.970998 0.00605275 6.41197e-18)
(1.01308 0.00461746 0)
(1.04716 0.0040232 0)
(1.04247 0.00429961 0)
(1.03203 0.00476678 -1.19648e-17)
(1.02486 0.00520621 1.19376e-17)
(1.0184 0.00569633 0)
(1.01105 0.00629049 0)
(1.00275 0.00698967 0)
(0.993564 0.00779398 0)
(0.983389 0.00871502 0)
(0.972062 0.00976917 -2.35557e-17)
(0.959415 0.0109741 2.35029e-17)
(0.945266 0.0123473 -4.6902e-17)
(0.929416 0.0139022 4.67974e-17)
(0.911653 0.015636 0)
(0.891771 0.0175066 -3.63994e-19)
(0.869608 0.0193763 0)
(2.02002 0.0106891 -3.68484e-19)
(1.23468 0.0141954 6.33743e-18)
(0.970502 0.0143038 -6.32566e-18)
(1.01658 0.0128839 0)
(1.0496 0.0123397 0)
(1.04391 0.0129905 2.44267e-17)
(1.03337 0.0140644 3.23002e-22)
(1.02628 0.0152696 -7.37207e-19)
(1.01984 0.0166873 1.43862e-22)
(1.01252 0.0183875 -2.35072e-17)
(1.00428 0.0203824 0)
(0.9952 0.0226858 -4.75691e-17)
(0.985162 0.0253298 4.67487e-17)
(0.974008 0.0283573 0)
(0.96158 0.0318163 0)
(0.947706 0.0357554 0)
(0.932196 0.0402096 0)
(0.914851 0.0451672 -4.63131e-17)
(0.895468 0.050505 4.65873e-17)
(0.873795 0.0558677 4.54494e-17)
(2.03601 0.0114864 0)
(1.2321 0.0215374 0)
(0.968482 0.0236572 0)
(1.01818 0.0213029 0)
(1.05168 0.0204517 2.34075e-17)
(1.04577 0.0215649 -2.41032e-17)
(1.03539 0.0232854 -1.45866e-18)
(1.02858 0.0252228 -7.28255e-19)
(1.02237 0.027535 2.327e-17)
(1.01527 0.0303219 -2.17834e-17)
(1.00728 0.0335976 -1.4501e-18)
(0.998489 0.0373843 4.70593e-17)
(0.988794 0.0417323 -4.77129e-17)
(0.978052 0.0467081 1.44373e-18)
(0.966123 0.0523872 4.61323e-17)
(0.952855 0.0588455 -9.35689e-17)
(0.938079 0.0661372 -1.43803e-18)
(0.921612 0.0742417 4.59303e-17)
(0.903256 0.0829569 -1.43324e-18)
(0.88268 0.0917225 -7.15943e-19)
(2.05564 0.0138453 0)
(1.23099 0.0276744 -1.44294e-18)
(0.965793 0.0311051 0)
(1.01897 0.0284646 0)
(1.05356 0.0277039 0)
(1.04785 0.029424 0)
(1.03787 0.0318859 1.4372e-18)
(1.03157 0.0346314 2.44086e-17)
(1.02582 0.0378866 -2.29502e-17)
(1.01915 0.0417836 -1.43299e-18)
(1.01162 0.0463421 2.86318e-18)
(1.00334 0.0515941 0)
(0.994227 0.0576074 -4.42929e-17)
(0.984164 0.064471 4.42493e-17)
(0.973041 0.072285 4.56326e-17)
(0.960742 0.0811499 -4.55875e-17)
(0.947129 0.0911387 9.25104e-17)
(0.932044 0.102225 -9.09972e-17)
(0.915313 0.114136 1.42046e-18)
(0.896556 0.126132 1.41964e-18)
(2.07858 0.0164358 -5.5987e-18)
(1.2299 0.0328856 7.07126e-18)
(0.962668 0.0371285 -1.13283e-17)
(1.01971 0.0343666 -1.13219e-17)
(1.0556 0.0338827 2.2636e-17)
(1.05023 0.036305 2.26251e-17)
(1.04082 0.0395852 -2.26157e-17)
(1.03521 0.0432115 1.41291e-18)
(1.03009 0.0474622 1.41232e-18)
(1.02404 0.0524929 4.51755e-17)
(1.01716 0.0583271 -9.03128e-17)
(1.00959 0.0650057 1.41022e-18)
(1.00128 0.0726125 4.65282e-17)
(0.992154 0.0812555 1.40935e-18)
(0.982136 0.0910558 -4.36718e-17)
(0.971156 0.102135 4.78773e-17)
(0.95912 0.114581 1.40755e-18)
(0.945909 0.128363 0)
(0.93139 0.143142 1.40635e-18)
(0.915167 0.158018 1.40613e-18)
(2.10444 0.0188766 5.47865e-18)
(1.22842 0.0372838 -5.53611e-18)
(0.959169 0.0419029 1.38692e-18)
(1.02069 0.0389608 0)
(1.05804 0.038853 2.21962e-17)
(1.05306 0.0420746 -2.22007e-17)
(1.04433 0.0462515 1.38784e-18)
(1.03951 0.0508251 -4.71966e-17)
(1.03515 0.0561162 -2.77699e-18)
(1.02983 0.0622928 8.88766e-17)
(1.02373 0.0693781 -4.72251e-17)
(1.01703 0.0774195 -1.38926e-18)
(1.00972 0.0865138 -4.72441e-17)
(1.00174 0.0967845 -4.58639e-17)
(0.993089 0.108369 8.75742e-17)
(0.983737 0.121403 8.62015e-17)
(0.973647 0.135987 -9.03891e-17)
(0.962744 0.152083 8.76252e-17)
(0.950951 0.169296 -1.79456e-16)
(0.93788 0.186578 8.76705e-17)
(2.13276 0.0213209 0)
(1.22595 0.0407385 0)
(0.955174 0.0451148 -1.35598e-18)
(1.02211 0.0420246 2.17126e-17)
(1.06108 0.0425087 -2.17318e-17)
(1.05646 0.0466804 -1.35933e-18)
(1.04844 0.0518498 -1.36056e-18)
(1.04447 0.0574375 1.36176e-18)
(1.0409 0.063801 1.36297e-18)
(1.03637 0.0711129 0)
(1.03113 0.0793935 4.5057e-17)
(1.02541 0.0886963 2.13176e-22)
(1.01922 0.0991294 -4.24004e-17)
(1.01257 0.110828 -8.62446e-17)
(1.00549 0.12394 1.7538e-16)
(0.998021 0.13861 -8.63949e-17)
(0.990176 0.154944 8.78433e-17)
(0.981931 0.172901 -8.65454e-17)
(0.97327 0.192037 -8.79959e-17)
(0.963832 0.211188 8.66988e-17)
(2.16292 0.0249877 0)
(1.22105 0.0427506 1.32011e-18)
(0.950346 0.0458616 -2.11775e-17)
(1.02428 0.0433018 2.25373e-17)
(1.06492 0.0448853 -2.12421e-17)
(1.06044 0.0501802 2.39358e-17)
(1.05307 0.0564422 0)
(1.04994 0.0631093 1.33407e-18)
(1.04714 0.0705514 0)
(1.04339 0.0789458 -1.33837e-18)
(1.03905 0.0883172 4.28973e-17)
(1.03437 0.0987286 -4.29664e-17)
(1.02941 0.110298 -8.60719e-17)
(1.02421 0.123169 8.48635e-17)
(1.01887 0.137493 0)
(1.01347 0.153419 0)
(1.00809 0.171053 8.6629e-17)
(1.00276 0.190356 1.95568e-22)
(0.99752 0.210862 -8.69084e-17)
(0.992054 0.231357 8.84019e-17)
(2.19435 0.0352131 -4.44608e-18)
(1.20992 0.0404343 4.49554e-18)
(0.944875 0.0410007 0)
(1.02832 0.0424779 -1.93973e-18)
(1.06974 0.0464022 -2.07368e-17)
(1.06479 0.052846 -2.20854e-17)
(1.058 0.0602568 8.33435e-17)
(1.05564 0.0680881 -4.30768e-17)
(1.05353 0.0765997 -4.18714e-17)
(1.05054 0.0859903 4.32832e-17)
(1.0471 0.0963209 -8.41447e-17)
(1.04351 0.107671 1.68694e-16)
(1.03984 0.120164 1.88383e-22)
(1.03619 0.133944 -8.47533e-17)
(1.03268 0.149161 0)
(1.02946 0.165953 8.51628e-17)
(1.02668 0.184424 -1.70737e-16)
(1.02442 0.20455 8.5575e-17)
(1.02283 0.225877 0)
(1.02164 0.247159 0)
(2.22834 0.0576959 -5.55279e-18)
(1.18347 0.0256538 4.36937e-18)
(0.943321 0.0260493 0)
(1.03847 0.040213 2.07712e-17)
(1.07565 0.0482854 -2.02058e-17)
(1.0688 0.0553028 -4.05381e-17)
(1.06282 0.0636832 -3.07117e-22)
(1.06124 0.0727243 8.15965e-17)
(1.05969 0.0822581 -8.18584e-17)
(1.05742 0.0925245 4.10608e-17)
(1.05493 0.103682 -8.23863e-17)
(1.05248 0.115834 8.26523e-17)
(1.05016 0.129103 -8.29199e-17)
(1.04809 0.143621 8.31887e-17)
(1.04645 0.15952 8.3459e-17)
(1.04543 0.176917 -8.37307e-17)
(1.04525 0.195893 0)
(1.04609 0.21645 -8.42779e-17)
(1.04823 0.238301 8.4554e-17)
(1.05144 0.260245 8.48067e-17)
(0.841786 0.0210086 0)
(0.803995 0.023255 0)
(0.758595 0.0258339 4.23755e-17)
(0.703491 0.0288011 -2.30013e-17)
(0.63587 0.0321673 -2.51523e-17)
(0.552141 0.0357794 4.16105e-17)
(0.448451 0.0390707 -1.54541e-17)
(0.321055 0.0406642 3.48747e-17)
(0.168508 0.0377721 0)
(0.0472268 0.0214698 0)
(0.84665 0.0608697 -1.83868e-17)
(0.809579 0.0677095 -5.92643e-17)
(0.764899 0.0755947 -2.13148e-17)
(0.710673 0.0846907 2.31386e-17)
(0.644086 0.095035 2.52983e-17)
(0.561503 0.106157 -5.57913e-17)
(0.458942 0.116349 4.66076e-17)
(0.332399 0.121388 -8.76009e-17)
(0.179365 0.112459 -1.0032e-17)
(0.0536603 0.064138 6.41366e-17)
(0.856939 0.099929 1.84627e-17)
(0.82121 0.111186 -1.98367e-17)
(0.777928 0.124198 4.28082e-17)
(0.725407 0.139208 4.64769e-17)
(0.660827 0.156276 -5.08243e-17)
(0.580463 0.17461 -2.80245e-17)
(0.480071 0.191384 3.12239e-17)
(0.354985 0.199568 -5.28272e-17)
(0.200951 0.184262 8.06896e-17)
(0.0665378 0.105264 -1.52491e-16)
(0.87298 0.137332 3.69518e-17)
(0.83911 0.152827 0)
(0.797795 0.17074 0)
(0.7477 0.191356 -4.65119e-17)
(0.685972 0.214757 5.08623e-17)
(0.608752 0.239825 2.10216e-21)
(0.511406 0.262629 0)
(0.388259 0.273438 7.04996e-17)
(0.232663 0.25168 -6.05685e-17)
(0.0854487 0.143606 1.87853e-16)
(0.894451 0.171809 -3.68565e-17)
(0.862888 0.191219 0)
(0.82403 0.213688 8.544e-17)
(0.776985 0.239488 0)
(0.718838 0.268721 5.07061e-17)
(0.645547 0.299941 5.5916e-17)
(0.551973 0.328138 0)
(0.431152 0.341015 1.40496e-16)
(0.273409 0.312854 -2.01145e-17)
(0.10968 0.17801 -7.01596e-17)
(0.920589 0.202439 1.99184e-21)
(0.891712 0.225329 -1.57417e-16)
(0.855729 0.2519 -2.65675e-21)
(0.812261 0.282355 0)
(0.758293 0.316812 -5.03737e-17)
(0.689561 0.353491 -5.55281e-17)
(0.600326 0.386333 0)
(0.482101 0.400639 -1.39418e-16)
(0.321658 0.366142 -1.59558e-16)
(0.13826 0.207488 2.31741e-17)
(0.950368 0.228581 7.3844e-22)
(0.924456 0.25447 1.09365e-21)
(0.891679 0.284632 1.68196e-16)
(0.852204 0.319159 -1.26823e-21)
(0.802864 0.358165 -9.97132e-17)
(0.739142 0.399522 -1.09874e-16)
(0.654624 0.436147 -3.05729e-17)
(0.539129 0.451117 3.44412e-17)
(0.375497 0.410304 1.18164e-16)
(0.169971 0.23125 2.28563e-16)
(0.982635 0.249891 -1.76071e-21)
(0.959789 0.278336 7.70045e-17)
(0.930433 0.311577 -1.66047e-16)
(0.895233 0.349588 -4.5031e-17)
(0.850791 0.392449 2.45898e-16)
(0.792336 0.437655 1.08327e-16)
(0.712737 0.477115 -1.20475e-16)
(0.600012 0.491887 0)
(0.432822 0.444717 3.87303e-17)
(0.203446 0.248854 -4.04041e-16)
(1.01621 0.266459 -1.21842e-21)
(0.996005 0.297017 -7.58113e-17)
(0.970112 0.332895 3.99073e-21)
(0.939328 0.373878 -8.85912e-17)
(0.899932 0.419967 9.67009e-17)
(0.846974 0.468249 5.32182e-17)
(0.772577 0.509641 5.91482e-17)
(0.662806 0.523392 -3.32535e-17)
(0.491795 0.46978 3.79381e-17)
(0.237337 0.260395 1.75659e-16)
(1.04908 0.279906 -6.93564e-17)
(1.0304 0.312099 -7.44139e-17)
(1.00814 0.350238 8.01684e-17)
(0.981929 0.39371 8.68695e-17)
(0.947862 0.442297 -1.89564e-16)
(0.900868 0.492576 0)
(0.832115 0.534501 0)
(0.725326 0.54587 -3.25052e-17)
(0.549734 0.485442 3.70347e-17)
(0.26957 0.26563 0)
(1.07892 0.300691 6.78302e-17)
(1.06087 0.333932 7.2856e-17)
(1.04219 0.372422 0)
(1.01989 0.416109 -8.52151e-17)
(0.99033 0.463945 0)
(0.948058 0.511705 -1.02528e-16)
(0.883102 0.548746 -5.70273e-17)
(0.777079 0.55298 -6.41979e-17)
(0.595963 0.484748 -1.46722e-16)
(0.294362 0.261005 1.70212e-16)
(1.11071 0.319284 1.61461e-21)
(1.09631 0.353141 -1.4817e-16)
(1.08121 0.391171 2.22777e-21)
(1.06244 0.433811 8.66957e-17)
(1.03637 0.479091 0)
(0.996825 0.521912 1.0438e-16)
(0.932563 0.551167 0)
(0.823499 0.54541 1.30853e-16)
(0.633993 0.467953 1.55101e-20)
(0.312604 0.246217 -1.73701e-16)
(1.14377 0.33378 6.99493e-17)
(1.13351 0.367196 -7.51493e-17)
(1.12189 0.40405 2.43191e-16)
(1.10622 0.444612 -8.79762e-17)
(1.08272 0.48614 -9.61531e-17)
(1.04444 0.522816 -5.29904e-17)
(0.979016 0.543271 2.44703e-21)
(0.865066 0.527007 6.64921e-17)
(0.666122 0.440823 2.66271e-16)
(0.32625 0.225459 4.4192e-17)
(1.17786 0.343315 -1.41564e-16)
(1.17142 0.375565 0)
(1.16291 0.410485 -4.57175e-21)
(1.14972 0.447956 8.90603e-17)
(1.12773 0.484634 2.43419e-16)
(1.08929 0.514209 5.36696e-17)
(1.02107 0.525344 1.19552e-16)
(0.900747 0.498878 -1.01099e-16)
(0.691638 0.405561 -1.92924e-16)
(0.335182 0.20069 1.79404e-16)
(1.21225 0.347571 7.14527e-17)
(1.20907 0.377979 7.67714e-17)
(1.20306 0.41022 -1.65683e-16)
(1.19145 0.443675 -4.49714e-17)
(1.1697 0.474536 -1.96686e-16)
(1.12945 0.496226 -1.62672e-16)
(1.05662 0.497768 -2.41636e-16)
(0.928427 0.461786 1.36284e-16)
(0.708727 0.363491 0)
(0.338755 0.173154 -2.0427e-16)
(1.24594 0.346345 1.07912e-16)
(1.24532 0.374293 0)
(1.24094 0.403176 0)
(1.2298 0.431838 0)
(1.2068 0.45615 0)
(1.16299 0.469486 1.09263e-16)
(1.08377 0.461551 1.21753e-16)
(0.946415 0.417157 0)
(0.716244 0.316359 0)
(0.336761 0.144135 -9.15773e-17)
(1.27788 0.33966 -3.6124e-17)
(1.27894 0.36461 -8.83309e-22)
(1.27513 0.389556 -4.1891e-17)
(1.26313 0.412829 4.54869e-17)
(1.2373 0.430128 -4.97505e-17)
(1.18818 0.435004 1.37203e-16)
(1.10099 0.418137 -3.05829e-17)
(0.953616 0.366842 6.90218e-17)
(0.713752 0.266169 -1.9777e-17)
(0.329389 0.114898 9.20872e-17)
(1.30699 0.327774 7.2362e-17)
(1.3087 0.349291 -3.88767e-17)
(1.30423 0.369851 0)
(1.28992 0.387336 -4.5563e-17)
(1.25963 0.39744 0)
(1.20358 0.394105 -5.49767e-17)
(1.10716 0.36924 -3.0635e-17)
(0.949501 0.312866 3.45729e-17)
(0.701401 0.21494 0)
(0.317122 0.0865878 -1.15339e-17)
(1.33225 0.311146 -5.42114e-17)
(1.33347 0.328924 3.88328e-17)
(1.32706 0.344789 0)
(1.309 0.356285 0)
(1.27276 0.359271 4.97739e-17)
(1.20847 0.348281 -2.74549e-17)
(1.10208 0.316671 -3.05973e-17)
(0.934452 0.257263 -6.90642e-17)
(0.68007 0.164601 3.95789e-17)
(0.300724 0.0602098 -5.18291e-17)
(1.35297 0.290409 5.40092e-17)
(1.35268 0.304159 -5.80011e-22)
(1.34312 0.315032 -2.08736e-17)
(1.31994 0.320396 0)
(1.27637 0.31648 -2.47877e-17)
(1.20271 0.298636 -1.367e-17)
(1.08586 0.261867 3.8086e-17)
(0.908904 0.201778 8.59503e-18)
(0.650447 0.116908 -4.43226e-17)
(0.280715 0.0366256 5.15808e-17)
(1.09334 0.276568 -4.17552e-16)
(1.12269 0.29334 1.03285e-16)
(1.15257 0.30685 0)
(1.18335 0.316151 1.02164e-16)
(1.21467 0.320971 -3.39705e-23)
(1.24561 0.321125 -1.56198e-18)
(1.27528 0.316577 7.77026e-19)
(1.30277 0.307483 -4.99081e-17)
(1.32723 0.294166 4.97507e-17)
(1.34791 0.277192 -2.46286e-17)
(1.10382 0.264073 2.08236e-16)
(1.13087 0.278124 0)
(1.15825 0.289593 0)
(1.1864 0.297616 1.00429e-16)
(1.21522 0.301887 1.57018e-18)
(1.2439 0.302236 -7.80289e-19)
(1.27164 0.29861 7.76333e-19)
(1.29769 0.291113 4.87114e-17)
(1.32131 0.279975 -4.9332e-17)
(1.34169 0.265715 2.46135e-17)
(1.11382 0.253524 0)
(1.13825 0.265321 -1.02921e-16)
(1.16314 0.274731 1.01988e-16)
(1.18872 0.281309 -1.01182e-16)
(1.21508 0.284774 0)
(1.24147 0.284976 -7.80592e-19)
(1.26723 0.281866 -9.86571e-17)
(1.29171 0.275511 0)
(1.31433 0.266083 0)
(1.33421 0.254044 -2.46411e-17)
(1.12263 0.243315 0)
(1.14488 0.253106 1.19161e-21)
(1.16749 0.260751 -1.01905e-16)
(1.19069 0.266056 1.01144e-16)
(1.21466 0.268782 7.85092e-19)
(1.23881 0.2688 -1.00727e-16)
(1.26257 0.266066 -2.70958e-22)
(1.2854 0.260623 0)
(1.30685 0.252599 0)
(1.32605 0.242391 0)
(1.12991 0.233337 -1.03526e-16)
(1.15033 0.241485 2.05297e-16)
(1.17097 0.247691 7.95464e-19)
(1.19208 0.251917 -1.01896e-16)
(1.21391 0.253983 -7.85102e-19)
(1.23598 0.25379 -9.99801e-17)
(1.25782 0.251309 1.50113e-16)
(1.27902 0.246571 -3.87571e-19)
(1.29924 0.239673 -4.90959e-17)
(1.31761 0.230953 -2.46972e-17)
(1.13575 0.223555 2.06661e-16)
(1.15455 0.230402 -1.02513e-16)
(1.17349 0.235468 1.01737e-16)
(1.19281 0.238817 1.00278e-16)
(1.21276 0.240323 1.02066e-16)
(1.23296 0.239923 9.92329e-17)
(1.25305 0.237606 -4.98091e-17)
(1.2727 0.233402 -3.87897e-19)
(1.29167 0.227393 3.86676e-19)
(1.30915 0.21987 2.47249e-17)
(1.14029 0.213964 -1.03539e-16)
(1.15766 0.21976 -1.01976e-16)
(1.1751 0.223929 -1.01654e-16)
(1.19287 0.226584 -1.0103e-16)
(1.21118 0.227643 -9.97117e-17)
(1.22974 0.227071 9.84852e-17)
(1.24827 0.224875 -4.90612e-17)
(1.2665 0.221089 0)
(1.28426 0.215787 9.9165e-17)
(1.3008 0.209227 0)
(1.1437 0.204584 0)
(1.15977 0.209517 1.02241e-16)
(1.1759 0.212976 -1.0157e-16)
(1.19232 0.21509 7.88989e-19)
(1.20921 0.215806 -1.02068e-16)
(1.22634 0.215109 -1.00082e-16)
(1.24347 0.213019 5.06498e-17)
(1.26041 0.209573 -4.97351e-17)
(1.27704 0.204843 -9.92655e-17)
(1.29267 0.199065 0)
(1.14611 0.195437 -1.02748e-16)
(1.16102 0.199659 0)
(1.17599 0.202553 1.01488e-16)
(1.19123 0.204247 1.01742e-16)
(1.20688 0.204708 1.26408e-22)
(1.22275 0.203931 9.93344e-17)
(1.23866 0.201943 0)
(1.25444 0.198787 4.97767e-17)
(1.27003 0.194532 4.9877e-17)
(1.28478 0.189396 -2.50031e-17)
(1.14767 0.186545 1.02556e-16)
(1.16154 0.190179 -1.01971e-16)
(1.17548 0.192621 1.01404e-16)
(1.18967 0.193991 -1.00128e-16)
(1.20424 0.194265 1.99429e-16)
(1.21901 0.193446 -9.85858e-17)
(1.23384 0.191565 -7.80198e-19)
(1.24859 0.188664 -3.89205e-19)
(1.26322 0.184812 -4.93449e-17)
(1.27716 0.180213 2.48373e-17)
(1.14852 0.177923 0)
(1.16146 0.18107 1.01837e-16)
(1.17447 0.183151 -1.01321e-16)
(1.18774 0.18427 -7.88101e-19)
(1.20135 0.184411 -9.89304e-17)
(1.21515 0.183581 -7.827e-19)
(1.22902 0.18181 -7.80665e-19)
(1.24285 0.17914 7.79079e-19)
(1.25662 0.175638 4.97837e-17)
(1.26979 0.171496 2.48657e-17)
(1.14878 0.169583 1.02571e-16)
(1.16087 0.172327 -3.97278e-19)
(1.17306 0.174117 0)
(1.1855 0.175042 0)
(1.19825 0.175092 7.85161e-19)
(1.21119 0.174273 -5.16753e-17)
(1.22422 0.172616 1.32678e-23)
(1.23722 0.170159 5.02925e-17)
(1.25021 0.166966 3.89334e-19)
(1.26268 0.163219 -2.48938e-17)
(1.14854 0.161533 -1.01982e-16)
(1.15987 0.163943 -1.01568e-16)
(1.17132 0.165498 -1.01155e-16)
(1.18302 0.166274 -7.87508e-19)
(1.19501 0.166263 1.31019e-23)
(1.20718 0.165472 5.01264e-17)
(1.21944 0.163929 7.81642e-19)
(1.23171 0.16167 9.92355e-23)
(1.24399 0.158754 0)
(1.25582 0.155354 0)
(1.14789 0.153776 -1.02189e-16)
(1.15855 0.155908 2.03265e-16)
(1.16932 0.157274 1.01073e-16)
(1.18035 0.157935 0)
(1.19166 0.157886 -9.97179e-17)
(1.20314 0.157134 4.93599e-17)
(1.21472 0.155705 0)
(1.22633 0.153629 -5.03771e-17)
(1.23796 0.150965 -2.45777e-17)
(1.2492 0.147872 0)
(1.14693 0.146313 1.01999e-16)
(1.15697 0.148214 -1.01697e-16)
(1.16714 0.149426 0)
(1.17756 0.149999 9.99387e-17)
(1.18825 0.149929 1.00504e-16)
(1.19911 0.149223 -1.00321e-16)
(1.21007 0.147904 -4.93038e-17)
(1.22107 0.146 0)
(1.23212 0.143565 2.49931e-17)
(1.24282 0.140747 0)
(1.1457 0.13914 1.01413e-16)
(1.15519 0.140849 0)
(1.16481 0.141935 0)
(1.17469 0.142441 -9.9901e-17)
(1.18482 0.142363 -1.09831e-23)
(1.19511 0.141707 4.86093e-17)
(1.20551 0.140494 5.09004e-17)
(1.21596 0.13875 -3.91177e-19)
(1.22648 0.136523 1.95461e-19)
(1.23668 0.133953 1.95372e-19)
(1.14428 0.132252 -2.02449e-16)
(1.15326 0.1338 1.01035e-16)
(1.16238 0.134784 7.87688e-19)
(1.17177 0.135239 -7.86329e-19)
(1.18138 0.135161 -5.02526e-17)
(1.19116 0.134557 0)
(1.20105 0.133446 0)
(1.211 0.131849 5.01132e-17)
(1.22102 0.129813 0)
(1.23076 0.127468 0)
(1.1427 0.125641 1.01432e-16)
(1.15123 0.127054 -1.01297e-16)
(1.1599 0.127955 7.87044e-19)
(1.16882 0.128371 -1.02183e-16)
(1.17797 0.128299 5.10381e-17)
(1.18729 0.127748 0)
(1.19671 0.126732 -7.84044e-19)
(1.2062 0.125273 -4.97635e-17)
(1.21576 0.123411 1.95859e-19)
(1.22508 0.12127 1.95818e-19)
(1.14101 0.1193 -1.01243e-16)
(1.14912 0.120598 3.93637e-19)
(1.15738 0.12143 -1.0066e-16)
(1.16589 0.121816 1.00573e-16)
(1.17461 0.121756 7.852e-19)
(1.1835 0.121256 -7.84819e-19)
(1.19249 0.120331 4.94255e-17)
(1.20156 0.118998 7.84344e-19)
(1.2107 0.117297 0)
(1.21963 0.115341 0)
(1.13924 0.113216 -3.92917e-19)
(1.14697 0.114418 1.01031e-16)
(1.15486 0.115193 1.00577e-16)
(1.16298 0.115557 -1.0132e-16)
(1.17132 0.115511 5.10385e-17)
(1.17981 0.115061 0)
(1.18841 0.114219 -5.0241e-17)
(1.19709 0.113003 -3.92499e-19)
(1.20584 0.111449 3.92513e-19)
(1.2144 0.109663 0)
(1.13742 0.107381 3.92759e-19)
(1.1448 0.1085 -1.00899e-16)
(1.15235 0.109227 -1.00495e-16)
(1.16012 0.109575 1.00496e-16)
(1.1681 0.109544 -1.00507e-16)
(1.17623 0.109141 0)
(1.18447 0.108378 0)
(1.19278 0.10727 -3.9283e-19)
(1.20118 0.10585 -2.49499e-17)
(1.2094 0.104219 2.53472e-17)
(1.13557 0.101783 9.98998e-17)
(1.14264 0.10283 -9.99828e-17)
(1.14986 0.103516 1.00413e-16)
(1.15732 0.103852 -5.10139e-17)
(1.16497 0.103838 7.85245e-19)
(1.17276 0.10348 0)
(1.18067 0.102789 -5.0303e-17)
(1.18865 0.10178 -3.93162e-19)
(1.19671 0.100485 2.55653e-17)
(1.20462 0.0989946 -2.51794e-17)
(1.13371 0.0964101 0)
(1.14049 0.0973947 1.00244e-16)
(1.14743 0.0980465 -1.0033e-16)
(1.15459 0.0983728 5.09944e-17)
(1.16194 0.0983751 4.94687e-17)
(1.16942 0.0980596 0)
(1.17702 0.0974363 4.95475e-17)
(1.18469 0.0965187 3.93503e-19)
(1.19244 0.0953363 1.9686e-19)
(1.20006 0.0939756 1.96941e-19)
(1.13186 0.0912515 3.90318e-19)
(1.13837 0.0921811 -3.91067e-19)
(1.14505 0.0928027 1.00248e-16)
(1.15194 0.0931218 7.84225e-19)
(1.159 0.0931402 -5.0254e-17)
(1.16621 0.0928642 4.95264e-17)
(1.17352 0.092303 -4.95781e-17)
(1.18091 0.0914695 2.40236e-17)
(1.18837 0.0903912 5.91177e-19)
(1.19571 0.0891489 -1.97167e-19)
(1.13003 0.0862958 9.93484e-17)
(1.1363 0.0871764 3.90556e-19)
(1.14273 0.0877712 0)
(1.14937 0.0880845 0)
(1.15618 0.0881182 2.37023e-23)
(1.16312 0.0878788 -5.03294e-17)
(1.17017 0.087375 1.00005e-16)
(1.17729 0.0866187 3.94183e-19)
(1.18448 0.0856359 1.97263e-19)
(1.19157 0.0845021 1.28306e-17)
(1.12823 0.0815319 -9.9166e-17)
(1.13428 0.0823683 -3.90046e-19)
(1.14049 0.0829389 -5.00421e-17)
(1.1469 0.083247 0)
(1.15347 0.0832952 5.02542e-17)
(1.16017 0.0830895 0)
(1.16697 0.0826383 -4.96393e-17)
(1.17385 0.081953 -2.64313e-17)
(1.18079 0.081058 3.94927e-19)
(1.18764 0.0800237 1.3867e-23)
(1.12647 0.0769491 -9.976e-17)
(1.13232 0.0777449 3.89537e-19)
(1.13832 0.0782932 5.00011e-17)
(1.14452 0.0785966 -7.83324e-19)
(1.15087 0.0786578 7.85225e-19)
(1.15735 0.0784831 0)
(1.16392 0.0780802 -7.88408e-19)
(1.17057 0.0774602 3.94836e-19)
(1.17728 0.0766456 1.97668e-19)
(1.18391 0.0757028 -1.24644e-17)
(1.12477 0.0725369 9.88022e-17)
(1.13043 0.0732949 3.89029e-19)
(1.13624 0.0738222 -7.80624e-19)
(1.14224 0.0741208 1.56605e-18)
(1.14839 0.0741938 -7.85225e-19)
(1.15466 0.0740472 0)
(1.16103 0.0736886 -2.52447e-17)
(1.16746 0.0731284 0)
(1.17396 0.0723879 0)
(1.18038 0.0715289 1.26769e-17)
(1.12312 0.068285 4.95039e-17)
(1.1286 0.0690074 0)
(1.13425 0.0695146 0)
(1.14007 0.0698082 -7.82721e-19)
(1.14603 0.0698914 -4.94689e-17)
(1.15211 0.0697703 0)
(1.15828 0.0694521 2.60497e-17)
(1.16451 0.0689467 -1.1865e-18)
(1.17081 0.0682742 3.96144e-19)
(1.17704 0.0674924 -1.26915e-17)
(1.12153 0.0641838 -9.92126e-17)
(1.12686 0.0648721 3.88016e-19)
(1.13234 0.0653596 7.79345e-19)
(1.13799 0.0656476 -5.16399e-17)
(1.14378 0.0657395 1.02079e-16)
(1.14969 0.0656413 -7.87715e-19)
(1.15568 0.06536 2.52759e-17)
(1.16173 0.0649049 -3.95835e-19)
(1.16784 0.0642949 1.98277e-19)
(1.17389 0.063584 1.98534e-19)
(1.12001 0.0602235 4.89376e-17)
(1.1252 0.060879 3.87511e-19)
(1.13053 0.061347 0)
(1.13603 0.0616287 4.92736e-17)
(1.14166 0.0617278 -4.94688e-17)
(1.1474 0.0616501 2.52152e-17)
(1.15322 0.0614022 1.99409e-24)
(1.1591 0.0609931 -3.96171e-19)
(1.16504 0.0604407 3.96959e-19)
(1.17092 0.0597949 0)
(1.11856 0.0563952 -3.8463e-19)
(1.12361 0.0570185 3.87007e-19)
(1.12881 0.057467 0)
(1.13417 0.0577417 -5.00363e-17)
(1.13965 0.0578464 7.85215e-19)
(1.14524 0.0577867 -5.12354e-17)
(1.15091 0.0575692 -2.53071e-17)
(1.15663 0.0572023 -2.57731e-17)
(1.16241 0.0567027 1.98685e-19)
(1.16814 0.056117 1.98994e-19)
(1.11719 0.05269 -4.95269e-17)
(1.12211 0.0532816 4.98588e-17)
(1.12719 0.0537103 0)
(1.13241 0.0539771 5.07985e-17)
(1.13776 0.0540858 -7.85218e-19)
(1.14321 0.054042 2.5232e-17)
(1.14873 0.0538519 0)
(1.15432 0.0535235 2.50013e-17)
(1.15994 0.0530725 5.96665e-19)
(1.16553 0.0525423 -1.99224e-19)
(1.11589 0.0490994 4.86702e-17)
(1.1207 0.0496596 3.85958e-19)
(1.12566 0.0500681 7.76792e-19)
(1.13076 0.0503261 -7.81215e-19)
(1.13599 0.0504373 0)
(1.14131 0.0504073 2.52403e-17)
(1.1467 0.0502419 -2.61301e-17)
(1.15215 0.0499487 2.58169e-17)
(1.15764 0.0495425 1.99095e-19)
(1.16309 0.0490633 1.29646e-17)
(1.11466 0.0456153 -4.8964e-17)
(1.11938 0.046144 -4.93439e-17)
(1.12423 0.0465319 0)
(1.12922 0.0467801 0)
(1.13433 0.0468925 0)
(1.13953 0.0468742 -5.04974e-17)
(1.1448 0.046731 7.92307e-19)
(1.15013 0.04647 -2.6634e-17)
(1.15549 0.0461049 3.98599e-19)
(1.16082 0.0456729 -1.27799e-17)
(1.11352 0.0422297 -3.8179e-19)
(1.11814 0.0427269 3.85e-19)
(1.12289 0.0430937 -7.75518e-19)
(1.12778 0.0433312 7.80608e-19)
(1.13279 0.0434432 7.85204e-19)
(1.13788 0.0434348 -7.89283e-19)
(1.14304 0.0433114 2.45768e-17)
(1.14825 0.0430798 3.97864e-19)
(1.15349 0.0427527 3.99011e-19)
(1.15871 0.0423643 0)
(1.11246 0.0389351 4.8405e-17)
(1.11699 0.0394006 3.845e-19)
(1.12165 0.0397457 2.47963e-17)
(1.12645 0.0399715 7.80299e-19)
(1.13136 0.0400819 -4.94237e-24)
(1.13635 0.0400817 -7.89545e-19)
(1.14141 0.039976 0)
(1.14651 0.0397712 0)
(1.15165 0.0394791 1.27815e-17)
(1.15676 0.039131 0)
(1.11147 0.0357243 3.80448e-19)
(1.11592 0.0361578 -3.84002e-19)
(1.12051 0.0364805 -2.55502e-17)
(1.12522 0.0366938 4.74213e-24)
(1.13004 0.0368013 7.85201e-19)
(1.13494 0.0368076 2.52738e-17)
(1.13991 0.0367177 2.54009e-17)
(1.14492 0.0365374 -3.98537e-19)
(1.14995 0.0362776 -1.23949e-17)
(1.15496 0.0359669 0)
(1.11057 0.0325903 -3.79758e-19)
(1.11495 0.0329914 3.83504e-19)
(1.11946 0.0332911 -2.47556e-17)
(1.1241 0.0334909 0)
(1.12884 0.0335943 0)
(1.13365 0.0336057 0)
(1.13853 0.0335297 -2.54166e-17)
(1.14345 0.0333718 -1.3163e-17)
(1.1484 0.0331418 4.00251e-19)
(1.15332 0.0328659 0)
(1.10974 0.0295263 -3.7907e-19)
(1.11406 0.0298945 3.83007e-19)
(1.11851 0.0301706 2.39623e-17)
(1.12307 0.030356 4.55705e-24)
(1.12774 0.0304543 7.85191e-19)
(1.13248 0.0304694 0)
(1.13728 0.0304057 7.94756e-19)
(1.14212 0.0302681 1.15773e-17)
(1.14699 0.0300658 -1.24206e-17)
(1.15183 0.0298222 0)
(1.109 0.0265256 0)
(1.11326 0.0268605 2.44807e-17)
(1.11765 0.0271123 2.4715e-17)
(1.12215 0.0272826 -7.79081e-19)
(1.12675 0.0273746 7.85186e-19)
(1.13142 0.0273922 0)
(1.13616 0.0273393 1.35192e-17)
(1.14092 0.0272205 -1.19868e-18)
(1.14571 0.0270438 1.30351e-17)
(1.15049 0.0268304 2.01087e-19)
(1.10833 0.023582 -3.777e-19)
(1.11254 0.0238829 -2.4067e-17)
(1.11688 0.0241098 -2.3923e-17)
(1.12133 0.0242642 -4.40832e-24)
(1.12587 0.0243492 -7.8518e-19)
(1.13048 0.0243681 0)
(1.13515 0.0243247 -1.35276e-17)
(1.13985 0.024223 3.99905e-19)
(1.14458 0.0240702 6.02247e-19)
(1.14928 0.0238851 -2.01323e-19)
(1.10774 0.0206891 3.77017e-19)
(1.11191 0.0209556 -3.81523e-19)
(1.1162 0.021157 0)
(1.1206 0.0212948 0)
(1.12509 0.0213718 0)
(1.12965 0.0213911 -1.26578e-17)
(1.13426 0.021356 -1.27397e-17)
(1.13891 0.0212701 -4.00242e-19)
(1.14357 0.0211396 2.00959e-19)
(1.14822 0.0209809 2.01558e-19)
(1.10723 0.0178406 -3.76337e-19)
(1.11136 0.0180722 3.8103e-19)
(1.11561 0.0182475 1.30975e-17)
(1.11997 0.0183681 -1.32288e-17)
(1.12441 0.0184365 0)
(1.12892 0.0184554 2.53239e-17)
(1.13349 0.0184275 1.27476e-17)
(1.13808 0.0183561 6.00878e-18)
(1.1427 0.0182466 -6.23617e-18)
(1.14729 0.0181129 2.01795e-19)
(1.10679 0.0150306 -1.23968e-17)
(1.11089 0.0152267 1.25577e-17)
(1.11511 0.0153755 -1.23169e-17)
(1.11943 0.0154784 2.41137e-17)
(1.12384 0.0155375 7.85159e-19)
(1.12831 0.0155552 -2.53322e-17)
(1.13283 0.0155338 6.37773e-18)
(1.13738 0.0154758 -6.81578e-18)
(1.14195 0.0153859 6.8468e-18)
(1.1465 0.0152758 0)
(1.10643 0.0122528 1.23744e-17)
(1.11051 0.0124131 -3.8005e-19)
(1.1147 0.0125351 -7.69173e-19)
(1.11899 0.0126199 -1.16633e-17)
(1.12336 0.0126693 0)
(1.1278 0.0126851 1.26702e-17)
(1.13229 0.0126693 -7.17937e-18)
(1.1368 0.0126239 -5.21653e-18)
(1.14133 0.0125525 -6.0476e-19)
(1.14585 0.0124648 2.02269e-19)
(1.10615 0.00950144 -1.19779e-17)
(1.1102 0.00962572 -2.15076e-24)
(1.11437 0.00972064 7.68541e-19)
(1.11863 0.00978706 -1.55449e-18)
(1.12298 0.00982627 1.57028e-18)
(1.1274 0.0098397 -7.12935e-18)
(1.13185 0.00982874 5.58741e-18)
(1.13634 0.00979497 3.61454e-18)
(1.14084 0.0097412 3.83414e-18)
(1.14532 0.00967471 -2.02507e-19)
(1.10593 0.00677053 1.15827e-17)
(1.10997 0.0068586 -1.17511e-17)
(1.11412 0.00692624 0)
(1.11837 0.00697397 0)
(1.1227 0.00700262 7.85131e-19)
(1.12709 0.00701312 5.54687e-18)
(1.13153 0.00700641 -6.38956e-18)
(1.13599 0.00698357 2.81372e-18)
(1.14046 0.00694656 -3.03011e-18)
(1.14493 0.00690048 2.02745e-19)
(1.10579 0.00405421 3.72963e-19)
(1.10982 0.0041058 -3.78579e-19)
(1.11396 0.00414583 3.06912e-18)
(1.1182 0.00417446 -7.7663e-19)
(1.12252 0.00419206 3.1405e-18)
(1.12689 0.00419911 -2.37801e-18)
(1.13131 0.00419611 0)
(1.13576 0.00418365 -4.02304e-19)
(1.14022 0.00416285 4.04439e-19)
(1.14467 0.00413666 -8.11934e-19)
(1.10572 0.00134843 -3.73321e-19)
(1.10975 0.00136446 3.79168e-19)
(1.11388 0.00137718 -3.84447e-18)
(1.11812 0.00138652 7.7866e-19)
(1.12242 0.00139255 -1.57506e-18)
(1.12679 0.00139538 1.59084e-18)
(1.13121 0.00139512 0)
(1.13565 0.00139191 -4.03955e-19)
(1.14009 0.00138607 2.03096e-19)
(1.14453 0.00137851 1.01948e-18)
(2.25724 0.0538542 0)
(1.14866 0.00854627 0)
(0.955321 0.0162615 0)
(1.05525 0.0409017 0)
(1.07995 0.0507541 0)
(1.07071 0.0569801 0)
(1.06633 0.0655336 0)
(1.06551 0.0751524 0)
(1.06435 0.085075 0)
(1.06273 0.0955701 0)
(1.06112 0.106892 0)
(1.05967 0.119152 0)
(1.05848 0.13245 0)
(1.05769 0.146901 0)
(1.05749 0.162616 0)
(1.05808 0.179687 0)
(1.05975 0.198159 0)
(1.06286 0.217969 0)
(1.06794 0.238781 0)
(1.0746 0.259206 0)
(2.26712 0.0338375 0)
(1.12713 0.0147429 0)
(0.95943 0.0224909 0)
(1.06238 0.0408361 0)
(1.08126 0.050503 0)
(1.0715 0.0577848 0)
(1.06838 0.0665627 0)
(1.06818 0.0761426 0)
(1.06746 0.0860629 0)
(1.06645 0.0965268 0)
(1.06556 0.10773 0)
(1.06493 0.11977 0)
(1.06463 0.132733 0)
(1.06482 0.146709 0)
(1.06567 0.16178 0)
(1.06742 0.178001 0)
(1.07032 0.195366 0)
(1.07475 0.213719 0)
(1.08111 0.232501 0)
(1.08849 0.250092 0)
(2.27191 0.019356 0)
(1.11496 0.0197157 0)
(0.95777 0.0273505 0)
(1.06365 0.0403171 0)
(1.08098 0.0499019 0)
(1.07153 0.0581953 0)
(1.06942 0.0671541 0)
(1.06991 0.0766488 0)
(1.06977 0.0865207 0)
(1.06942 0.0969053 0)
(1.06927 0.107938 0)
(1.06942 0.119704 0)
(1.06996 0.132274 0)
(1.07103 0.145718 0)
(1.07282 0.160087 0)
(1.07553 0.175401 0)
(1.07941 0.191613 0)
(1.08476 0.208522 0)
(1.09191 0.225527 0)
(1.10006 0.241138 0)
(2.27545 0.0128744 0)
(1.10849 0.020154 0)
(0.954911 0.0284074 0)
(1.06285 0.0394274 0)
(1.08003 0.0491513 0)
(1.07101 0.0580463 0)
(1.0697 0.0671705 0)
(1.07089 0.0766552 0)
(1.07139 0.086491 0)
(1.07172 0.0967797 0)
(1.07229 0.107626 0)
(1.07318 0.119103 0)
(1.07449 0.131273 0)
(1.07636 0.144185 0)
(1.07897 0.157868 0)
(1.08249 0.172317 0)
(1.08715 0.187463 0)
(1.09319 0.203094 0)
(1.10089 0.218649 0)
(1.10961 0.232727 0)
(2.27869 0.0101005 0)
(1.10511 0.019366 0)
(0.952634 0.0280712 0)
(1.06177 0.0383801 0)
(1.079 0.0481511 0)
(1.07028 0.0573639 0)
(1.06959 0.0666276 0)
(1.07139 0.0761293 0)
(1.07249 0.085922 0)
(1.07346 0.0960943 0)
(1.07469 0.106734 0)
(1.07626 0.117907 0)
(1.07827 0.129662 0)
(1.08085 0.142036 0)
(1.08416 0.15504 0)
(1.08837 0.168654 0)
(1.09366 0.182796 0)
(1.10024 0.197259 0)
(1.10832 0.211523 0)
(1.11741 0.224273 0)
(2.28195 0.00887686 0)
(1.10353 0.0186376 0)
(0.951163 0.0274296 0)
(1.06093 0.0372959 0)
(1.07818 0.0469803 0)
(1.06964 0.0563171 0)