/*--------------------------------*- C++ -*----------------------------------*\
  =========                 |
  \\      /  F ield         | OpenFOAM: The Open Source CFD Toolbox
   \\    /   O peration     | Website:  https://openfoam.org
    \\  /    A nd           | Version:  6
     \\/     M anipulation  |
\*---------------------------------------------------------------------------*/
FoamFile
{
    version     2.0;
    format      ascii;
    class       volScalarField;
    location    "0.45";
    object      p;
}
// * * * * * * * * * * * * * * * * * * * * * * * * * * * * * * * * * * * * * //

dimensions      [0 2 -2 0 0 0 0];

internalField   nonuniform List<scalar> 
5600
(
999.324
999.477
999.625
999.632
999.618
999.617
999.622
999.626
999.63
999.635
999.641
999.648
999.655
999.664
999.674
999.684
999.696
999.71
999.725
999.741
999.314
999.479
999.626
999.631
999.617
999.616
999.621
999.625
999.629
999.634
999.64
999.647
999.654
999.663
999.672
999.683
999.695
999.708
999.723
999.739
999.306
999.476
999.625
999.629
999.614
999.614
999.618
999.622
999.626
999.631
999.637
999.643
999.651
999.659
999.668
999.679
999.69
999.703
999.716
999.731
999.295
999.472
999.623
999.625
999.61
999.61
999.614
999.618
999.622
999.626
999.632
999.638
999.645
999.653
999.661
999.671
999.681
999.692
999.705
999.718
999.281
999.466
999.619
999.621
999.605
999.605
999.609
999.612
999.616
999.62
999.625
999.631
999.637
999.644
999.651
999.66
999.669
999.678
999.689
999.699
999.265
999.458
999.615
999.616
999.599
999.598
999.602
999.605
999.608
999.612
999.616
999.621
999.627
999.632
999.639
999.646
999.653
999.66
999.668
999.676
999.247
999.45
999.61
999.609
999.592
999.591
999.594
999.597
999.6
999.603
999.606
999.61
999.615
999.619
999.624
999.629
999.635
999.64
999.644
999.648
999.226
999.442
999.605
999.602
999.584
999.583
999.586
999.588
999.59
999.592
999.595
999.598
999.601
999.605
999.608
999.611
999.614
999.616
999.618
999.618
999.203
999.434
999.6
999.594
999.575
999.574
999.577
999.578
999.58
999.581
999.583
999.585
999.587
999.589
999.591
999.592
999.592
999.592
999.59
999.586
999.167
999.431
999.597
999.584
999.565
999.564
999.567
999.568
999.568
999.57
999.571
999.572
999.573
999.573
999.573
999.572
999.57
999.567
999.562
999.554
999.763
999.791
999.823
999.861
999.904
999.953
1000.01
1000.07
1000.14
1000.3
999.759
999.787
999.819
999.855
999.897
999.944
999.998
1000.06
1000.12
1000.28
999.75
999.776
999.807
999.842
999.881
999.926
999.976
1000.03
1000.09
1000.25
999.733
999.757
999.786
999.819
999.855
999.896
999.941
999.991
1000.04
1000.2
999.71
999.731
999.758
999.787
999.82
999.856
999.895
999.938
999.985
1000.12
999.682
999.699
999.723
999.749
999.777
999.807
999.84
999.875
999.912
1000.04
999.648
999.662
999.683
999.705
999.727
999.752
999.777
999.803
999.831
999.941
999.612
999.622
999.639
999.657
999.674
999.691
999.709
999.726
999.743
999.834
999.573
999.579
999.594
999.606
999.618
999.629
999.638
999.647
999.654
999.722
999.532
999.537
999.548
999.555
999.561
999.565
999.566
999.564
999.558
999.604
999.499
999.506
999.51
999.511
999.508
999.499
999.483
999.459
999.434
999.468
999.462
999.465
999.463
999.458
999.448
999.43
999.404
999.369
999.333
999.347
999.422
999.421
999.413
999.402
999.385
999.36
999.326
999.284
999.241
999.234
999.38
999.374
999.361
999.344
999.321
999.289
999.248
999.2
999.151
999.125
999.337
999.326
999.309
999.287
999.258
999.22
999.173
999.12
999.066
999.023
999.294
999.279
999.258
999.231
999.197
999.155
999.103
999.046
998.989
998.93
999.251
999.233
999.208
999.178
999.14
999.094
999.04
998.98
998.921
998.849
999.211
999.19
999.162
999.129
999.088
999.04
998.984
998.923
998.863
998.779
999.174
999.149
999.12
999.085
999.043
998.994
998.937
998.877
998.816
998.722
999.14
999.114
999.083
999.047
999.004
998.955
998.899
998.838
998.777
998.675
999.494
999.456
999.417
999.377
999.337
999.297
999.258
999.222
999.188
999.157
999.482
999.445
999.408
999.372
999.335
999.298
999.263
999.229
999.198
999.17
999.467
999.432
999.398
999.365
999.331
999.298
999.266
999.236
999.207
999.181
999.453
999.421
999.389
999.359
999.328
999.298
999.269
999.241
999.215
999.191
999.441
999.411
999.382
999.354
999.326
999.298
999.271
999.246
999.222
999.199
999.43
999.402
999.375
999.349
999.324
999.298
999.274
999.25
999.228
999.207
999.42
999.394
999.37
999.346
999.322
999.299
999.276
999.254
999.234
999.214
999.412
999.388
999.365
999.343
999.321
999.299
999.278
999.258
999.239
999.22
999.404
999.382
999.36
999.34
999.319
999.299
999.28
999.261
999.243
999.226
999.397
999.376
999.356
999.337
999.318
999.3
999.281
999.264
999.247
999.231
999.39
999.371
999.353
999.335
999.317
999.3
999.283
999.266
999.251
999.235
999.385
999.367
999.35
999.333
999.316
999.3
999.284
999.269
999.254
999.239
999.379
999.363
999.347
999.331
999.316
999.3
999.285
999.271
999.257
999.243
999.375
999.359
999.344
999.329
999.315
999.3
999.286
999.273
999.259
999.246
999.37
999.356
999.342
999.328
999.314
999.301
999.287
999.274
999.262
999.249
999.367
999.353
999.34
999.327
999.314
999.301
999.288
999.276
999.264
999.252
999.363
999.35
999.338
999.325
999.313
999.301
999.289
999.277
999.266
999.254
999.36
999.348
999.336
999.324
999.312
999.301
999.29
999.278
999.268
999.257
999.357
999.345
999.334
999.323
999.312
999.301
999.29
999.279
999.269
999.259
999.354
999.343
999.333
999.322
999.311
999.301
999.291
999.281
999.271
999.261
999.351
999.341
999.331
999.321
999.311
999.301
999.291
999.281
999.272
999.262
999.349
999.339
999.33
999.32
999.311
999.301
999.292
999.282
999.273
999.264
999.347
999.338
999.329
999.319
999.31
999.301
999.292
999.283
999.274
999.265
999.345
999.336
999.327
999.319
999.31
999.301
999.292
999.284
999.275
999.267
999.343
999.335
999.326
999.318
999.309
999.301
999.293
999.284
999.276
999.268
999.341
999.333
999.325
999.317
999.309
999.301
999.293
999.285
999.277
999.269
999.34
999.332
999.324
999.316
999.309
999.301
999.293
999.285
999.278
999.27
999.338
999.331
999.323
999.316
999.308
999.301
999.293
999.286
999.278
999.271
999.337
999.33
999.322
999.315
999.308
999.301
999.293
999.286
999.279
999.272
999.335
999.329
999.322
999.315
999.308
999.301
999.293
999.286
999.279
999.272
999.334
999.328
999.321
999.314
999.307
999.3
999.294
999.287
999.28
999.273
999.333
999.327
999.32
999.314
999.307
999.3
999.294
999.287
999.28
999.274
999.332
999.326
999.32
999.313
999.307
999.3
999.294
999.287
999.281
999.274
999.331
999.325
999.319
999.313
999.306
999.3
999.294
999.287
999.281
999.275
999.33
999.324
999.318
999.312
999.306
999.3
999.294
999.288
999.282
999.275
999.329
999.324
999.318
999.312
999.306
999.3
999.294
999.288
999.282
999.276
999.329
999.323
999.317
999.312
999.306
999.3
999.294
999.288
999.282
999.276
999.328
999.322
999.317
999.311
999.306
999.3
999.294
999.288
999.282
999.276
999.327
999.322
999.316
999.311
999.305
999.3
999.294
999.288
999.283
999.277
999.327
999.321
999.316
999.311
999.305
999.3
999.294
999.288
999.283
999.277
999.326
999.321
999.316
999.31
999.305
999.299
999.294
999.288
999.283
999.277
999.326
999.321
999.315
999.31
999.305
999.299
999.294
999.288
999.283
999.277
999.325
999.32
999.315
999.31
999.305
999.299
999.294
999.289
999.283
999.278
999.325
999.32
999.315
999.31
999.305
999.299
999.294
999.289
999.283
999.278
999.324
999.32
999.315
999.31
999.304
999.299
999.294
999.289
999.283
999.278
999.324
999.319
999.314
999.309
999.304
999.299
999.294
999.289
999.283
999.278
999.324
999.319
999.314
999.309
999.304
999.299
999.294
999.289
999.283
999.278
999.324
999.319
999.314
999.309
999.304
999.299
999.294
999.289
999.283
999.278
999.324
999.319
999.314
999.309
999.304
999.299
999.294
999.289
999.283
999.278
999.324
999.319
999.314
999.309
999.304
999.299
999.294
999.289
999.283
999.278
999.107
999.447
999.597
999.57
999.553
999.554
999.556
999.556
999.556
999.555
999.555
999.555
999.554
999.552
999.55
999.546
999.541
999.534
999.524
999.508
999.075
999.449
999.593
999.56
999.545
999.547
999.548
999.547
999.547
999.546
999.545
999.544
999.542
999.54
999.536
999.532
999.526
999.517
999.507
999.491
999.055
999.442
999.586
999.552
999.538
999.54
999.54
999.539
999.538
999.537
999.536
999.534
999.531
999.528
999.524
999.519
999.512
999.504
999.493
999.479
999.038
999.434
999.58
999.545
999.53
999.532
999.532
999.531
999.53
999.528
999.526
999.524
999.521
999.517
999.513
999.507
999.5
999.491
999.48
999.466
999.022
999.425
999.574
999.538
999.523
999.525
999.525
999.523
999.521
999.519
999.517
999.514
999.511
999.507
999.502
999.495
999.488
999.479
999.468
999.455
999.006
999.417
999.567
999.531
999.515
999.517
999.517
999.515
999.513
999.511
999.508
999.505
999.501
999.497
999.491
999.485
999.477
999.468
999.457
999.444
998.991
999.408
999.561
999.524
999.508
999.51
999.509
999.507
999.505
999.502
999.499
999.496
999.492
999.487
999.481
999.475
999.467
999.458
999.447
999.434
998.977
999.4
999.555
999.517
999.501
999.502
999.502
999.5
999.497
999.494
999.491
999.487
999.483
999.478
999.472
999.465
999.457
999.448
999.438
999.426
998.962
999.392
999.549
999.51
999.494
999.495
999.495
999.492
999.49
999.487
999.483
999.479
999.475
999.469
999.463
999.457
999.449
999.44
999.429
999.418
998.948
999.384
999.543
999.503
999.487
999.488
999.488
999.485
999.482
999.479
999.476
999.471
999.467
999.461
999.455
999.448
999.441
999.432
999.422
999.411
998.934
999.376
999.537
999.497
999.48
999.482
999.481
999.478
999.475
999.472
999.468
999.464
999.459
999.454
999.448
999.441
999.433
999.424
999.415
999.404
998.921
999.368
999.531
999.491
999.474
999.475
999.474
999.471
999.468
999.465
999.461
999.457
999.452
999.447
999.441
999.434
999.426
999.418
999.408
999.398
998.907
999.36
999.526
999.485
999.467
999.469
999.468
999.465
999.462
999.458
999.455
999.45
999.445
999.44
999.434
999.427
999.42
999.411
999.402
999.392
998.895
999.353
999.52
999.479
999.461
999.463
999.462
999.459
999.456
999.452
999.448
999.444
999.439
999.434
999.428
999.421
999.414
999.406
999.397
999.387
998.882
999.346
999.515
999.473
999.455
999.457
999.456
999.453
999.45
999.446
999.442
999.438
999.433
999.428
999.422
999.415
999.408
999.4
999.392
999.383
998.87
999.339
999.51
999.467
999.449
999.451
999.45
999.447
999.444
999.44
999.436
999.432
999.427
999.422
999.416
999.41
999.403
999.395
999.387
999.378
998.859
999.333
999.505
999.462
999.444
999.445
999.445
999.442
999.438
999.435
999.431
999.427
999.422
999.417
999.411
999.405
999.398
999.391
999.383
999.374
998.847
999.326
999.5
999.457
999.439
999.44
999.439
999.436
999.433
999.43
999.426
999.421
999.417
999.412
999.406
999.4
999.393
999.386
999.379
999.371
998.837
999.32
999.496
999.452
999.433
999.435
999.434
999.431
999.428
999.425
999.421
999.417
999.412
999.407
999.401
999.396
999.389
999.382
999.375
999.367
998.826
999.314
999.491
999.447
999.429
999.43
999.429
999.426
999.423
999.42
999.416
999.412
999.407
999.402
999.397
999.391
999.385
999.379
999.371
999.364
998.816
999.308
999.487
999.443
999.424
999.426
999.425
999.422
999.419
999.415
999.412
999.408
999.403
999.398
999.393
999.387
999.381
999.375
999.368
999.361
998.807
999.303
999.483
999.438
999.419
999.421
999.42
999.417
999.414
999.411
999.407
999.403
999.399
999.394
999.389
999.384
999.378
999.372
999.365
999.358
998.798
999.298
999.479
999.434
999.415
999.417
999.416
999.413
999.41
999.407
999.403
999.4
999.395
999.391
999.386
999.38
999.375
999.369
999.362
999.356
998.789
999.293
999.476
999.43
999.411
999.413
999.412
999.409
999.406
999.403
999.4
999.396
999.392
999.387
999.382
999.377
999.372
999.366
999.36
999.353
998.781
999.288
999.472
999.426
999.407
999.409
999.409
999.406
999.403
999.4
999.396
999.392
999.388
999.384
999.379
999.374
999.369
999.363
999.357
999.351
998.773
999.284
999.469
999.423
999.404
999.406
999.405
999.402
999.399
999.396
999.393
999.389
999.385
999.381
999.376
999.371
999.366
999.361
999.355
999.349
998.766
999.28
999.466
999.419
999.4
999.402
999.402
999.399
999.396
999.393
999.39
999.386
999.382
999.378
999.373
999.369
999.364
999.358
999.353
999.347
998.758
999.275
999.463
999.416
999.397
999.399
999.398
999.396
999.393
999.39
999.387
999.383
999.379
999.375
999.371
999.366
999.361
999.356
999.351
999.345
998.752
999.272
999.46
999.413
999.394
999.396
999.395
999.393
999.39
999.387
999.384
999.38
999.377
999.373
999.368
999.364
999.359
999.354
999.349
999.344
998.745
999.268
999.458
999.41
999.391
999.393
999.392
999.39
999.387
999.384
999.381
999.378
999.374
999.37
999.366
999.362
999.357
999.352
999.347
999.342
998.739
999.265
999.455
999.408
999.388
999.39
999.39
999.387
999.384
999.382
999.379
999.375
999.372
999.368
999.364
999.36
999.355
999.351
999.346
999.341
998.734
999.261
999.453
999.405
999.385
999.388
999.387
999.385
999.382
999.379
999.376
999.373
999.369
999.366
999.362
999.358
999.353
999.349
999.344
999.339
998.729
999.258
999.45
999.403
999.383
999.385
999.385
999.382
999.38
999.377
999.374
999.371
999.367
999.364
999.36
999.356
999.352
999.347
999.343
999.338
998.724
999.256
999.448
999.4
999.381
999.383
999.383
999.38
999.377
999.375
999.372
999.369
999.366
999.362
999.358
999.354
999.35
999.346
999.341
999.337
998.719
999.253
999.447
999.398
999.378
999.381
999.381
999.378
999.375
999.373
999.37
999.367
999.364
999.36
999.357
999.353
999.349
999.345
999.34
999.336
998.715
999.251
999.445
999.396
999.376
999.379
999.379
999.376
999.374
999.371
999.368
999.365
999.362
999.359
999.355
999.351
999.347
999.343
999.339
999.335
998.711
999.248
999.443
999.395
999.375
999.377
999.377
999.374
999.372
999.369
999.367
999.364
999.361
999.357
999.354
999.35
999.346
999.342
999.338
999.334
998.707
999.246
999.442
999.393
999.373
999.375
999.375
999.373
999.37
999.368
999.365
999.362
999.359
999.356
999.353
999.349
999.345
999.341
999.337
999.333
998.704
999.244
999.44
999.391
999.371
999.374
999.374
999.371
999.369
999.366
999.364
999.361
999.358
999.355
999.351
999.348
999.344
999.34
999.336
999.332
998.701
999.243
999.439
999.39
999.37
999.372
999.372
999.37
999.368
999.365
999.363
999.36
999.357
999.354
999.35
999.347
999.343
999.339
999.335
999.331
998.698
999.241
999.438
999.389
999.369
999.371
999.371
999.369
999.366
999.364
999.361
999.359
999.356
999.353
999.349
999.346
999.342
999.339
999.335
999.331
998.695
999.24
999.437
999.388
999.368
999.37
999.37
999.368
999.365
999.363
999.361
999.358
999.355
999.352
999.349
999.345
999.342
999.338
999.334
999.33
998.693
999.238
999.436
999.387
999.367
999.369
999.369
999.367
999.364
999.362
999.36
999.357
999.354
999.351
999.348
999.344
999.341
999.337
999.334
999.33
998.691
999.237
999.435
999.386
999.366
999.368
999.368
999.366
999.364
999.361
999.359
999.356
999.353
999.35
999.347
999.344
999.34
999.337
999.333
999.329
998.69
999.236
999.434
999.385
999.365
999.368
999.368
999.365
999.363
999.361
999.358
999.356
999.353
999.35
999.347
999.343
999.34
999.336
999.333
999.329
998.689
999.235
999.434
999.385
999.364
999.367
999.367
999.365
999.362
999.36
999.358
999.355
999.352
999.349
999.346
999.343
999.339
999.336
999.332
999.329
998.688
999.235
999.433
999.384
999.364
999.366
999.366
999.364
999.362
999.36
999.357
999.355
999.352
999.349
999.346
999.343
999.339
999.336
999.332
999.328
998.688
999.234
999.433
999.384
999.364
999.366
999.366
999.364
999.362
999.359
999.357
999.354
999.352
999.349
999.346
999.342
999.339
999.335
999.332
999.328
998.693
999.23
999.433
999.385
999.363
999.366
999.366
999.364
999.361
999.359
999.357
999.354
999.351
999.348
999.345
999.342
999.339
999.335
999.332
999.328
998.711
999.218
999.43
999.387
999.364
999.365
999.366
999.364
999.361
999.359
999.357
999.354
999.351
999.348
999.345
999.342
999.339
999.335
999.332
999.328
998.997
998.963
998.932
998.904
998.875
998.844
998.81
998.775
998.739
998.673
999.002
998.968
998.936
998.909
998.88
998.85
998.818
998.784
998.75
998.692
998.997
998.968
998.939
998.914
998.887
998.859
998.829
998.797
998.765
998.714
998.992
998.967
998.94
998.917
998.892
998.865
998.837
998.808
998.779
998.736
998.988
998.966
998.942
998.92
998.896
998.871
998.845
998.818
998.792
998.757
998.985
998.966
998.944
998.923
998.9
998.877
998.852
998.827
998.804
998.777
998.983
998.966
998.946
998.926
998.905
998.882
998.859
998.835
998.814
998.794
998.982
998.966
998.948
998.929
998.908
998.886
998.864
998.842
998.822
998.808
998.982
998.967
998.95
998.931
998.911
998.89
998.868
998.847
998.828
998.817
998.983
998.968
998.951
998.933
998.913
998.892
998.87
998.849
998.831
998.822
998.994
999.003
999.013
999.023
999.033
999.043
999.052
999.062
999.071
999.081
999.09
999.099
999.108
999.116
999.125
999.133
999.141
999.149
999.156
999.164
999.171
999.178
999.185
999.191
999.197
999.204
999.21
999.215
999.221
999.226
999.232
999.237
999.242
999.247
999.251
999.256
999.261
999.266
999.27
999.275
999.28
999.285
999.29
999.295
999.301
999.307
999.313
999.32
999.328
999.334
998.99
998.999
999.01
999.02
999.03
999.04
999.05
999.059
999.069
999.078
999.088
999.097
999.105
999.114
999.123
999.131
999.139
999.147
999.155
999.162
999.169
999.176
999.183
999.19
999.196
999.202
999.208
999.214
999.219
999.225
999.23
999.235
999.24
999.245
999.25
999.255
999.26
999.264
999.269
999.274
999.279
999.284
999.289
999.294
999.3
999.306
999.312
999.318
999.326
999.333
998.984
998.993
999.005
999.016
999.026
999.036
999.046
999.056
999.065
999.075
999.084
999.093
999.102
999.111
999.12
999.128
999.136
999.144
999.152
999.159
999.166
999.174
999.18
999.187
999.193
999.2
999.206
999.212
999.217
999.223
999.228
999.233
999.238
999.243
999.248
999.253
999.258
999.262
999.267
999.272
999.277
999.282
999.287
999.292
999.297
999.303
999.309
999.315
999.323
999.329
998.978
998.986
998.999
999.011
999.021
999.031
999.042
999.052
999.062
999.071
999.081
999.09
999.099
999.108
999.116
999.125
999.133
999.141
999.148
999.156
999.163
999.17
999.177
999.184
999.19
999.197
999.203
999.209
999.214
999.22
999.225
999.231
999.236
999.241
999.246
999.25
999.255
999.26
999.265
999.269
999.274
999.279
999.284
999.289
999.294
999.299
999.305
999.311
999.318
999.324
998.971
998.979
998.993
999.005
999.016
999.027
999.037
999.047
999.057
999.067
999.077
999.086
999.095
999.104
999.112
999.121
999.129
999.137
999.145
999.152
999.16
999.167
999.174
999.18
999.187
999.193
999.199
999.205
999.211
999.217
999.222
999.227
999.232
999.237
999.242
999.247
999.252
999.256
999.261
999.266
999.27
999.275
999.28
999.285
999.29
999.295
999.3
999.306
999.312
999.317
998.965
998.972
998.987
999
999.012
999.022
999.033
999.043
999.053
999.063
999.073
999.082
999.091
999.1
999.108
999.117
999.125
999.133
999.141
999.148
999.156
999.163
999.17
999.177
999.183
999.189
999.196
999.201
999.207
999.213
999.218
999.224
999.229
999.234
999.239
999.243
999.248
999.253
999.257
999.262
999.266
999.271
999.275
999.28
999.284
999.289
999.294
999.299
999.305
999.31
998.959
998.965
998.982
998.996
999.008
999.019
999.03
999.04
999.05
999.06
999.069
999.079
999.088
999.096
999.105
999.113
999.121
999.129
999.137
999.144
999.152
999.159
999.166
999.173
999.179
999.185
999.191
999.197
999.203
999.209
999.214
999.219
999.225
999.229
999.234
999.239
999.244
999.248
999.252
999.257
999.261
999.265
999.27
999.274
999.278
999.283
999.287
999.292
999.297
999.301
998.956
998.961
998.98
998.994
999.005
999.017
999.027
999.038
999.048
999.057
999.067
999.076
999.085
999.093
999.102
999.11
999.118
999.126
999.133
999.141
999.148
999.155
999.162
999.169
999.175
999.181
999.187
999.193
999.199
999.205
999.21
999.215
999.22
999.225
999.23
999.234
999.239
999.243
999.247
999.252
999.256
999.26
999.264
999.268
999.272
999.276
999.279
999.283
999.288
999.291
998.954
998.96
998.98
998.994
999.005
999.016
999.027
999.037
999.047
999.056
999.065
999.074
999.083
999.091
999.099
999.107
999.115
999.123
999.13
999.138
999.145
999.152
999.158
999.165
999.171
999.177
999.183
999.189
999.195
999.2
999.205
999.211
999.215
999.22
999.225
999.229
999.234
999.238
999.242
999.246
999.25
999.254
999.257
999.261
999.264
999.268
999.271
999.275
999.278
999.281
998.955
998.967
998.986
998.999
999.01
999.02
999.03
999.04
999.049
999.058
999.066
999.075
999.083
999.091
999.099
999.106
999.114
999.121
999.128
999.135
999.142
999.149
999.155
999.162
999.168
999.174
999.18
999.185
999.191
999.196
999.201
999.206
999.211
999.215
999.22
999.224
999.228
999.232
999.236
999.24
999.244
999.247
999.25
999.254
999.257
999.26
999.263
999.266
999.268
999.271
999.004
998.999
999.001
999.007
999.016
999.024
999.033
999.042
999.05
999.058
999.067
999.075
999.082
999.09
999.098
999.105
999.113
999.12
999.127
999.134
999.14
999.147
999.153
999.16
999.166
999.172
999.177
999.183
999.188
999.193
999.198
999.203
999.208
999.213
999.217
999.221
999.225
999.229
999.232
999.236
999.239
999.242
999.246
999.248
999.251
999.254
999.256
999.258
999.26
999.262
999.018
999.015
999.014
999.019
999.026
999.033
999.04
999.048
999.056
999.063
999.071
999.078
999.086
999.093
999.1
999.107
999.114
999.121
999.128
999.134
999.141
999.147
999.153
999.159
999.165
999.171
999.176
999.181
999.187
999.192
999.196
999.201
999.206
999.21
999.214
999.218
999.222
999.225
999.229
999.232
999.235
999.238
999.241
999.243
999.246
999.248
999.25
999.252
999.253
999.255
999.026
999.027
999.027
999.031
999.036
999.042
999.049
999.055
999.062
999.069
999.076
999.083
999.09
999.096
999.103
999.11
999.116
999.123
999.129
999.135
999.141
999.147
999.153
999.159
999.164
999.17
999.175
999.18
999.185
999.19
999.195
999.199
999.203
999.207
999.211
999.215
999.219
999.222
999.225
999.228
999.231
999.234
999.236
999.238
999.24
999.242
999.244
999.245
999.247
999.248
999.035
999.037
999.038
999.041
999.046
999.051
999.057
999.062
999.069
999.075
999.081
999.087
999.094
999.1
999.106
999.113
999.119
999.125
999.131
999.137
999.142
999.148
999.154
999.159
999.164
999.169
999.174
999.179
999.184
999.188
999.193
999.197
999.201
999.205
999.209
999.212
999.215
999.219
999.222
999.224
999.227
999.229
999.231
999.233
999.235
999.237
999.238
999.239
999.24
999.24
999.045
999.047
999.048
999.051
999.055
999.06
999.065
999.07
999.075
999.081
999.087
999.092
999.098
999.104
999.11
999.116
999.121
999.127
999.132
999.138
999.143
999.149
999.154
999.159
999.164
999.169
999.174
999.178
999.183
999.187
999.191
999.195
999.199
999.202
999.206
999.209
999.212
999.215
999.218
999.22
999.223
999.225
999.227
999.228
999.23
999.231
999.232
999.233
999.233
999.233
999.055
999.057
999.059
999.061
999.065
999.068
999.073
999.077
999.082
999.087
999.092
999.097
999.103
999.108
999.113
999.119
999.124
999.129
999.134
999.14
999.145
999.15
999.155
999.159
999.164
999.169
999.173
999.177
999.181
999.185
999.189
999.193
999.197
999.2
999.203
999.206
999.209
999.212
999.214
999.217
999.219
999.22
999.222
999.223
999.225
999.226
999.226
999.226
999.226
999.226
999.066
999.067
999.069
999.071
999.074
999.077
999.081
999.085
999.089
999.093
999.098
999.103
999.107
999.112
999.117
999.122
999.127
999.132
999.137
999.141
999.146
999.151
999.155
999.16
999.164
999.168
999.172
999.177
999.18
999.184
999.188
999.191
999.195
999.198
999.201
999.203
999.206
999.208
999.211
999.213
999.215
999.216
999.218
999.219
999.219
999.22
999.22
999.22
999.22
999.219
999.076
999.077
999.078
999.08
999.083
999.085
999.089
999.092
999.096
999.1
999.104
999.108
999.112
999.117
999.121
999.125
999.13
999.134
999.139
999.143
999.148
999.152
999.156
999.16
999.164
999.168
999.172
999.176
999.179
999.183
999.186
999.189
999.193
999.195
999.198
999.201
999.203
999.205
999.207
999.209
999.211
999.212
999.213
999.214
999.214
999.215
999.215
999.214
999.214
999.212
999.086
999.087
999.088
999.089
999.091
999.094
999.096
999.099
999.102
999.106
999.109
999.113
999.117
999.121
999.125
999.129
999.133
999.137
999.141
999.145
999.149
999.153
999.157
999.161
999.165
999.168
999.172
999.175
999.179
999.182
999.185
999.188
999.191
999.193
999.196
999.198
999.2
999.202
999.204
999.205
999.207
999.208
999.209
999.209
999.209
999.21
999.209
999.209
999.208
999.206
999.096
999.096
999.097
999.098
999.1
999.102
999.104
999.106
999.109
999.112
999.115
999.118
999.122
999.125
999.129
999.132
999.136
999.14
999.143
999.147
999.151
999.154
999.158
999.161
999.165
999.168
999.172
999.175
999.178
999.181
999.184
999.186
999.189
999.191
999.193
999.195
999.197
999.199
999.201
999.202
999.203
999.204
999.204
999.205
999.205
999.204
999.204
999.203
999.202
999.2
999.106
999.105
999.106
999.107
999.108
999.109
999.111
999.113
999.115
999.118
999.12
999.123
999.126
999.129
999.132
999.136
999.139
999.142
999.146
999.149
999.152
999.156
999.159
999.162
999.165
999.168
999.171
999.174
999.177
999.18
999.182
999.185
999.187
999.189
999.191
999.193
999.195
999.196
999.197
999.198
999.199
999.2
999.2
999.2
999.2
999.2
999.199
999.198
999.196
999.194
999.115
999.114
999.114
999.115
999.116
999.117
999.118
999.12
999.121
999.123
999.126
999.128
999.131
999.133
999.136
999.139
999.142
999.145
999.148
999.151
999.154
999.157
999.16
999.163
999.166
999.168
999.171
999.174
999.176
999.179
999.181
999.183
999.185
999.187
999.189
999.191
999.192
999.193
999.194
999.195
999.196
999.196
999.196
999.196
999.196
999.195
999.194
999.193
999.191
999.189
999.124
999.122
999.122
999.123
999.123
999.124
999.125
999.126
999.127
999.129
999.131
999.133
999.135
999.137
999.14
999.142
999.145
999.148
999.15
999.153
999.156
999.158
999.161
999.164
999.166
999.169
999.171
999.173
999.176
999.178
999.18
999.182
999.184
999.185
999.187
999.188
999.189
999.19
999.191
999.192
999.192
999.193
999.192
999.192
999.192
999.191
999.19
999.188
999.186
999.184
999.132
999.13
999.13
999.13
999.13
999.13
999.131
999.132
999.133
999.134
999.136
999.137
999.139
999.141
999.143
999.146
999.148
999.15
999.153
999.155
999.157
999.16
999.162
999.164
999.167
999.169
999.171
999.173
999.175
999.177
999.179
999.181
999.182
999.184
999.185
999.186
999.187
999.188
999.188
999.189
999.189
999.189
999.189
999.188
999.188
999.187
999.185
999.184
999.181
999.179
999.14
999.138
999.137
999.137
999.137
999.137
999.137
999.137
999.138
999.139
999.14
999.142
999.143
999.145
999.147
999.149
999.151
999.153
999.155
999.157
999.159
999.161
999.163
999.165
999.167
999.169
999.171
999.173
999.175
999.176
999.178
999.179
999.181
999.182
999.183
999.184
999.185
999.185
999.186
999.186
999.186
999.186
999.185
999.185
999.184
999.183
999.181
999.179
999.177
999.174
999.147
999.145
999.144
999.143
999.143
999.143
999.143
999.143
999.143
999.144
999.145
999.146
999.147
999.149
999.15
999.152
999.153
999.155
999.157
999.159
999.16
999.162
999.164
999.166
999.168
999.169
999.171
999.173
999.174
999.176
999.177
999.178
999.179
999.18
999.181
999.182
999.183
999.183
999.183
999.183
999.183
999.183
999.182
999.181
999.18
999.179
999.177
999.175
999.173
999.17
999.154
999.151
999.151
999.15
999.149
999.148
999.148
999.148
999.148
999.149
999.149
999.15
999.151
999.152
999.153
999.154
999.156
999.157
999.159
999.16
999.162
999.163
999.165
999.167
999.168
999.17
999.171
999.172
999.174
999.175
999.176
999.177
999.178
999.179
999.179
999.18
999.18
999.181
999.181
999.181
999.18
999.18
999.179
999.178
999.177
999.175
999.174
999.172
999.169
999.166
999.16
999.158
999.157
999.155
999.154
999.153
999.153
999.153
999.153
999.153
999.153
999.154
999.154
999.155
999.156
999.157
999.158
999.159
999.161
999.162
999.163
999.165
999.166
999.167
999.168
999.17
999.171
999.172
999.173
999.174
999.175
999.176
999.177
999.177
999.178
999.178
999.178
999.179
999.178
999.178
999.178
999.177
999.176
999.175
999.174
999.172
999.17
999.168
999.166
999.163
999.166
999.163
999.162
999.161
999.159
999.158
999.158
999.157
999.157
999.157
999.157
999.157
999.158
999.158
999.159
999.16
999.161
999.162
999.163
999.164
999.165
999.166
999.167
999.168
999.169
999.17
999.171
999.172
999.173
999.174
999.174
999.175
999.176
999.176
999.176
999.177
999.177
999.177
999.176
999.176
999.175
999.174
999.173
999.172
999.171
999.169
999.167
999.165
999.163
999.16
999.172
999.169
999.167
999.166
999.164
999.163
999.162
999.161
999.161
999.161
999.161
999.161
999.161
999.161
999.162
999.162
999.163
999.164
999.164
999.165
999.166
999.167
999.168
999.169
999.169
999.17
999.171
999.172
999.172
999.173
999.174
999.174
999.174
999.175
999.175
999.175
999.175
999.175
999.174
999.174
999.173
999.172
999.171
999.17
999.168
999.166
999.164
999.162
999.16
999.157
999.177
999.174
999.172
999.17
999.169
999.167
999.166
999.165
999.165
999.164
999.164
999.164
999.164
999.164
999.164
999.164
999.165
999.165
999.166
999.167
999.167
999.168
999.168
999.169
999.17
999.17
999.171
999.172
999.172
999.173
999.173
999.173
999.173
999.174
999.174
999.173
999.173
999.173
999.172
999.172
999.171
999.17
999.169
999.167
999.166
999.164
999.162
999.16
999.157
999.154
999.181
999.178
999.176
999.175
999.173
999.171
999.17
999.169
999.168
999.168
999.167
999.167
999.167
999.166
999.167
999.167
999.167
999.167
999.168
999.168
999.168
999.169
999.169
999.17
999.17
999.171
999.171
999.171
999.172
999.172
999.172
999.172
999.172
999.172
999.172
999.172
999.172
999.171
999.171
999.17
999.169
999.168
999.166
999.165
999.163
999.162
999.159
999.157
999.155
999.152
999.186
999.182
999.181
999.179
999.177
999.175
999.174
999.173
999.172
999.171
999.17
999.17
999.169
999.169
999.169
999.169
999.169
999.169
999.169
999.169
999.169
999.17
999.17
999.17
999.171
999.171
999.171
999.171
999.172
999.172
999.172
999.172
999.172
999.171
999.171
999.171
999.17
999.17
999.169
999.168
999.167
999.166
999.164
999.163
999.161
999.159
999.157
999.155
999.152
999.149
999.19
999.186
999.184
999.182
999.18
999.179
999.177
999.176
999.175
999.174
999.173
999.172
999.172
999.171
999.171
999.171
999.17
999.17
999.17
999.17
999.171
999.171
999.171
999.171
999.171
999.171
999.171
999.171
999.171
999.171
999.171
999.171
999.171
999.17
999.17
999.17
999.169
999.168
999.167
999.166
999.165
999.164
999.163
999.161
999.159
999.157
999.155
999.153
999.15
999.147
999.193
999.19
999.188
999.186
999.184
999.182
999.18
999.179
999.178
999.176
999.175
999.175
999.174
999.173
999.173
999.172
999.172