/*--------------------------------*- C++ -*----------------------------------*\
  =========                 |
  \\      /  F ield         | OpenFOAM: The Open Source CFD Toolbox
   \\    /   O peration     | Website:  https://openfoam.org
    \\  /    A nd           | Version:  6
     \\/     M anipulation  |
\*---------------------------------------------------------------------------*/
FoamFile
{
    version     2.0;
    format      ascii;
    class       surfaceScalarField;
    location    "0.45";
    object      phi;
}
// * * * * * * * * * * * * * * * * * * * * * * * * * * * * * * * * * * * * * //

dimensions      [0 3 -1 0 0 0 0];

internalField   nonuniform List<scalar> 
11030
(
0.000113597
-1.25133e-07
0.000113722
-1.24907e-07
0.000113751
-2.97045e-08
0.00011368
7.1594e-08
0.000113545
1.34313e-07
0.000113346
1.9916e-07
0.000113068
2.78687e-07
0.0001127
3.67188e-07
0.000112238
4.62671e-07
0.000111671
5.66937e-07
0.000110989
6.81996e-07
0.000110179
8.09607e-07
0.000109227
9.51768e-07
0.000108117
1.11084e-06
0.000106827
1.28945e-06
0.000105337
1.49015e-06
0.000103622
1.71473e-06
0.00010166
1.96264e-06
9.94317e-05
2.22791e-06
2.4898e-06
9.69419e-05
0.000113675
-3.27507e-07
0.000113699
-1.48333e-07
0.000113634
3.45015e-08
0.000113523
1.82834e-07
0.00011335
3.07425e-07
0.000113102
4.47384e-07
0.000112772
6.08816e-07
0.000112353
7.8567e-07
0.000111838
9.77565e-07
0.000111217
1.18781e-06
0.00011048
1.41986e-06
0.000109612
1.67717e-06
0.0001086
1.96377e-06
0.000107426
2.28438e-06
0.000106072
2.64414e-06
0.000104514
3.04805e-06
0.000102729
3.49956e-06
0.000100694
3.9974e-06
9.83925e-05
4.52964e-06
5.05929e-06
9.5823e-05
0.000113584
-4.41926e-07
0.000113592
-1.56655e-07
0.000113502
1.24496e-07
0.000113342
3.42723e-07
0.000113117
5.3234e-07
0.000112818
7.46936e-07
0.000112435
9.91423e-07
0.000111963
1.25806e-06
0.000111393
1.54747e-06
0.000110716
1.86454e-06
0.000109922
2.21425e-06
0.000108997
2.6017e-06
0.000107928
3.03285e-06
0.000106698
3.51467e-06
0.000105287
4.05469e-06
0.000103675
4.66026e-06
0.000101838
5.33644e-06
9.97542e-05
6.08146e-06
9.74058e-05
6.87809e-06
7.67606e-06
9.4789e-05
0.000113521
-4.96127e-07
0.000113475
-1.10769e-07
0.000113339
2.6099e-07
0.00011313
5.51552e-07
0.000112853
8.09053e-07
0.000112501
1.09967e-06
0.000112064
1.42832e-06
0.000111536
1.78564e-06
0.000110911
2.17299e-06
0.000110178
2.59679e-06
0.000109329
3.06343e-06
0.000108351
3.57955e-06
0.000107231
4.15291e-06
0.000105954
4.7925e-06
0.0001045
5.50807e-06
0.000102851
6.30906e-06
0.000100986
7.20204e-06
9.88824e-05
8.18483e-06
9.65251e-05
9.2354e-06
1.02928e-05
9.39083e-05
0.000113455
-4.85065e-07
0.000113347
-2.42009e-09
0.000113156
4.51915e-07
0.000112894
8.13451e-07
0.000112563
1.14006e-06
0.000112155
1.50786e-06
0.000111662
1.92142e-06
0.000111078
2.36968e-06
0.000110396
2.85452e-06
0.000109609
3.38373e-06
0.000108708
3.96497e-06
0.000107681
4.6062e-06
0.000106517
5.31677e-06
0.000105202
6.1074e-06
0.000103721
6.98969e-06
0.000102055
7.97482e-06
0.000100186
9.07062e-06
9.80969e-05
1.02744e-05
9.57725e-05
1.15598e-05
1.28577e-05
9.32076e-05
0.000113382
-3.99977e-07
0.000113205
1.74031e-07
0.000112957
6.99952e-07
0.00011264
1.13083e-06
0.000112252
1.52823e-06
0.000111785
1.97453e-06
0.000111233
2.47349e-06
0.00011059
3.01228e-06
0.000109852
3.59318e-06
0.00010901
4.22513e-06
0.000108058
4.91689e-06
0.000106987
5.67753e-06
0.000105786
6.51764e-06
0.000104444
7.4493e-06
0.000102948
8.48549e-06
0.000101285
9.63865e-06
9.94377e-05
1.09174e-05
9.73934e-05
1.23187e-05
9.51411e-05
1.38121e-05
1.53237e-05
9.26751e-05
0.000113294
-2.25901e-07
0.000113046
4.21705e-07
0.000112746
1.0004e-06
0.000112373
1.50362e-06
0.000111924
1.97743e-06
0.000111394
2.50421e-06
0.000110779
3.08866e-06
0.000110074
3.71685e-06
0.000109276
4.39125e-06
0.000108379
5.12181e-06
0.000107378
5.91824e-06
0.000106265
6.79047e-06
0.000105033
7.74998e-06
0.000103672
8.80971e-06
0.000102174
9.98342e-06
0.000100529
1.12842e-05
9.8725e-05
1.27212e-05
9.67529e-05
1.42909e-05
9.46048e-05
1.59601e-05
1.76542e-05
9.22743e-05
0.000113174
6.89703e-08
0.000112859
7.36932e-07
0.000112526
1.33385e-06
0.000112099
1.93026e-06
0.000111581
2.49507e-06
0.000110982
3.10394e-06
0.000110298
3.77266e-06
0.000109526
4.48809e-06
0.000108666
5.25213e-06
0.000107712
6.07564e-06
0.000106661
6.96924e-06
0.000105508
7.94345e-06
0.000104248
9.01014e-06
0.000102875
1.01826e-05
0.000101384
1.14745e-05
9.97687e-05
1.28991e-05
9.80245e-05
1.44655e-05
9.61453e-05
1.61701e-05
9.4126e-05
1.79793e-05
1.98264e-05
9.19539e-05
0.000112956
5.84767e-07
0.000112633
1.06043e-06
0.000112313
1.6531e-06
0.000111823
2.42049e-06
0.000111221
3.09698e-06
0.000110542
3.78296e-06
0.000109783
4.53234e-06
0.000108939
5.33186e-06
0.00010801
6.18056e-06
0.000106996
7.0903e-06
0.000105892
8.07266e-06
0.000104697
9.13837e-06
0.000103408
1.02991e-05
0.000102023
1.15676e-05
0.000100541
1.29568e-05
9.89613e-05
1.44788e-05
9.72847e-05
1.61422e-05
9.55108e-05
1.7944e-05
9.36384e-05
1.98517e-05
2.18023e-05
9.16625e-05
0.000112583
1.48806e-06
0.000112466
1.1771e-06
0.000112148
1.97163e-06
0.000111542
3.02595e-06
0.00011084
3.79944e-06
0.000110075
4.54809e-06
0.000109234
5.37337e-06
0.000108313
6.25212e-06
0.000107315
7.17938e-06
0.000106237
8.16828e-06
0.000105078
9.23114e-06
0.000103838
1.03784e-05
0.000102516
1.16208e-05
0.000101114
1.29697e-05
9.96351e-05
1.4436e-05
9.80848e-05
1.60291e-05
9.6473e-05
1.7754e-05
9.48093e-05
1.96078e-05
9.30852e-05
2.15758e-05
9.12953e-05
2.35922e-05
8.67135e-05
1.02284e-05
7.63457e-05
1.03678e-05
6.58256e-05
1.05202e-05
5.51499e-05
1.06757e-05
4.43362e-05
1.08137e-05
3.34611e-05
1.08752e-05
2.27401e-05
1.0721e-05
1.26831e-05
1.0057e-05
4.35021e-06
8.33291e-06
4.35021e-06
8.56917e-05
2.03598e-05
7.54133e-05
2.06461e-05
6.49837e-05
2.09497e-05
5.44028e-05
2.12566e-05
4.36919e-05
2.15245e-05
3.29329e-05
2.16342e-05
2.23436e-05
2.13102e-05
1.24315e-05
1.99691e-05
4.29054e-06
1.64738e-05
8.64075e-06
8.47593e-05
3.03895e-05
7.45751e-05
3.08303e-05
6.42381e-05
3.12867e-05
5.37506e-05
3.17442e-05
4.31367e-05
3.21383e-05
3.24819e-05
3.2289e-05
2.20089e-05
3.17832e-05
1.22285e-05
2.97496e-05
4.20912e-06
2.44932e-05
1.28499e-05
8.39688e-05
4.03291e-05
7.38694e-05
4.09297e-05
6.36158e-05
4.15403e-05
5.32112e-05
4.21487e-05
4.26808e-05
4.26687e-05
3.21127e-05
4.28571e-05
2.17337e-05
4.21622e-05
1.20576e-05
3.94257e-05
4.14184e-06
3.24089e-05
1.69917e-05
8.33425e-05
5.01942e-05
7.33121e-05
5.09601e-05
6.31265e-05
5.17259e-05
5.27881e-05
5.24872e-05
4.23218e-05
5.3135e-05
3.18181e-05
5.33608e-05
2.15087e-05
5.24716e-05
1.19126e-05
4.90218e-05
4.08249e-06
4.02391e-05
2.10742e-05
8.28677e-05
6.00015e-05
7.28889e-05
6.0939e-05
6.27537e-05
6.18611e-05
5.24619e-05
6.27789e-05
4.2038e-05
6.35589e-05
3.15754e-05
6.38234e-05
2.13126e-05
6.27344e-05
1.17774e-05
5.8557e-05
4.02263e-06
4.79939e-05
2.50968e-05
8.25057e-05
6.97701e-05
7.25599e-05
7.08848e-05
6.24565e-05
7.19645e-05
5.21907e-05
7.30447e-05
4.17868e-05
7.39628e-05
3.13436e-05
7.42666e-05
2.11099e-05
7.29681e-05
1.16262e-05
6.80407e-05
3.94929e-06
5.56708e-05
2.90461e-05
8.21954e-05
7.95286e-05
7.22595e-05
8.08207e-05
6.21681e-05
8.20559e-05
5.19062e-05
8.33066e-05
4.15018e-05
8.43672e-05
3.10622e-05
8.47061e-05
2.08509e-05
8.31794e-05
1.14246e-05
7.7467e-05
3.84549e-06
6.325e-05
3.28916e-05
8.18352e-05
8.9356e-05
7.18789e-05
9.0777e-05
6.17762e-05
9.21585e-05
5.14992e-05
9.35836e-05
4.10847e-05
9.47818e-05
3.06498e-05
9.51411e-05
2.04738e-05
9.33554e-05
1.11296e-05
8.68112e-05
3.68714e-06
7.06924e-05
3.65788e-05
8.11855e-05
9.94657e-05
7.12152e-05
0.000100747
6.10838e-05
0.00010229
5.07966e-05
0.000103871
4.03956e-05
0.000105183
3.00007e-05
0.000105536
1.99015e-05
0.000103455
1.06797e-05
9.6033e-05
3.42461e-06
7.79475e-05
4.00034e-05
3.08888e-05
0.000104813
-3.62362e-05
2.55727e-05
0.000106063
2.03471e-05
0.000107516
1.52621e-05
0.000108956
1.04655e-05
0.000109979
6.21038e-06
0.000109791
2.84079e-06
0.000106824
7.00851e-07
9.81729e-05
-8.80274e-08
7.87364e-05
3.99153e-05
2.50355e-05
0.000109629
-2.98511e-05
2.0221e-05
0.000110878
1.55077e-05
0.000112229
1.10051e-05
0.000113458
6.87745e-06
0.000114107
3.37532e-06
0.000113293
8.13238e-07
0.000109386
-5.23505e-07
9.95097e-05
-5.98058e-07
7.8811e-05
3.93173e-05
1.92283e-05
0.000113942
-2.35415e-05
1.49286e-05
0.000115178
1.0763e-05
0.000116394
6.86703e-06
0.000117354
3.42516e-06
0.000117549
6.87252e-07
0.000116031
-1.06129e-06
0.000111135
-1.59937e-06
0.000100048
-9.92885e-07
7.82045e-05
3.83244e-05
1.35215e-05
0.000117756
-1.73354e-05
9.75442e-06
0.000118945
6.15928e-06
0.00011999
2.89072e-06
0.000120623
1.48451e-07
0.000120291
-1.82126e-06
0.000118001
-2.76498e-06
0.000112078
-2.53235e-06
9.98151e-05
-1.30549e-06
7.69776e-05
3.70189e-05
7.95459e-06
0.000121068
-1.12671e-05
4.73016e-06
0.000122169
1.72319e-06
0.000122997
-8.9932e-07
0.000123245
-2.92998e-06
0.000122322
-4.1323e-06
0.000119203
-4.29087e-06
0.000112237
-3.33134e-06
9.88556e-05
-1.55154e-06
7.51978e-05
3.54674e-05
2.55484e-06
0.000123877
-5.3638e-06
-1.19748e-07
0.000124844
-2.52517e-06
0.000125402
-4.4873e-06
0.000125208
-5.79841e-06
0.000123633
-6.23923e-06
0.000119644
-5.63931e-06
0.000111637
-4.00399e-06
9.72203e-05
-1.73974e-06
7.29336e-05
3.37276e-05
-2.65993e-06
0.000126179
3.57812e-07
-4.77805e-06
0.000126962
-6.5711e-06
0.000127195
-7.86222e-06
0.000126499
-8.45024e-06
0.000124221
-8.14069e-06
0.000119334
-6.81466e-06
0.000110311
-4.55897e-06
9.49646e-05
-1.87829e-06
7.02529e-05
3.18493e-05
-7.68073e-06
0.00012797
5.88991e-06
-9.23475e-06
0.000128516
-1.04052e-05
0.000128365
-1.10167e-05
0.00012711
-1.08813e-05
0.000124086
-9.83689e-06
0.00011829
-7.82212e-06
0.000108296
-5.00495e-06
9.21474e-05
-1.97449e-06
6.72224e-05
2.98748e-05
-1.25042e-05
0.000129244
1.12307e-05
-1.34835e-05
0.000129495
-1.40184e-05
0.0001289
-1.39404e-05
0.000127032
-1.30821e-05
0.000123227
-1.13224e-05
0.00011653
-8.66311e-06
0.000105637
-5.34979e-06
8.88341e-05
-2.0361e-06
6.39087e-05
2.78387e-05
-1.71246e-05
1.63886e-05
0.00012998
-1.75028e-05
0.000129873
-1.73767e-05
0.000128774
-1.65931e-05
0.000126249
-1.50153e-05
0.00012165
-1.25724e-05
0.000114087
-9.33199e-06
0.000102397
-5.60511e-06
8.51072e-05
-2.08007e-06
6.03837e-05
2.57587e-05
8.02846e-05
-3.68703e-05
-7.96505e-05
8.11356e-05
-3.07022e-05
8.21762e-05
-2.45822e-05
8.33516e-05
-1.85107e-05
8.46196e-05
-1.25352e-05
8.59326e-05
-6.6768e-06
8.72401e-05
-9.49663e-07
8.84925e-05
4.63751e-06
8.96435e-05
1.00796e-05
1.53917e-05
9.06404e-05
8.09621e-05
-3.73282e-05
-8.05042e-05
8.16146e-05
-3.13546e-05
8.24568e-05
-2.54244e-05
8.34458e-05
-1.94996e-05
8.45435e-05
-1.36329e-05
8.57091e-05
-7.84241e-06
8.68997e-05
-2.14027e-06
8.80729e-05
3.46433e-06
8.91881e-05
8.96442e-06
1.43781e-05
9.02017e-05
8.15435e-05
-3.75884e-05
-8.12834e-05
8.2014e-05
-3.18251e-05
8.26707e-05
-2.60811e-05
8.34815e-05
-2.03105e-05
8.44134e-05
-1.45647e-05
8.54319e-05
-8.86091e-06
8.65013e-05
-3.20971e-06
8.75863e-05
2.37933e-06
8.86525e-05
7.89822e-06
1.33657e-05
8.9665e-05
8.20506e-05
-3.77032e-05
-8.19358e-05
8.2362e-05
-3.21365e-05
8.28504e-05
-2.65696e-05
8.34936e-05
-2.09537e-05
8.42655e-05
-1.53365e-05
8.51384e-05
-9.73388e-06
8.60839e-05
-4.1552e-06
8.70732e-05
1.39001e-06
8.8078e-05
6.89343e-06
1.23731e-05
8.90706e-05
8.2475e-05
-3.7702e-05
-8.24762e-05
8.26519e-05
-3.23134e-05
8.29929e-05
-2.69106e-05
8.34847e-05
-2.14455e-05
8.41082e-05
-1.59601e-05
8.48428e-05
-1.04685e-05
8.56665e-05
-4.97892e-06
8.6557e-05
4.99562e-07
8.74915e-05
5.95895e-06
1.14162e-05
8.84483e-05
8.28157e-05
-3.75986e-05
-8.29192e-05
8.28763e-05
-3.2374e-05
8.30896e-05
-2.71238e-05
8.34482e-05
-2.18041e-05
8.3939e-05
-1.64509e-05
8.4547e-05
-1.10764e-05
8.5256e-05
-5.68795e-06
8.60492e-05
-2.93679e-07
8.69091e-05
5.09904e-06
1.05063e-05
8.78191e-05
8.30794e-05
-3.74028e-05
-8.32752e-05
8.30374e-05
-3.2332e-05
8.31396e-05
-2.7226e-05
8.33821e-05
-2.20466e-05
8.3756e-05
-1.68248e-05
8.42506e-05
-1.15711e-05
8.48545e-05
-6.29185e-06
8.55555e-05
-9.94607e-07
8.63403e-05
4.31418e-06
9.64978e-06
8.71968e-05
8.32744e-05
-3.71232e-05
-8.35539e-05
8.31412e-05
-3.21989e-05
8.31462e-05
-2.72309e-05
8.32875e-05
-2.21879e-05
8.3559e-05
-1.70962e-05
8.39532e-05
-1.19653e-05
8.44623e-05
-6.80092e-06
8.50776e-05
-1.60987e-06
8.57896e-05
3.60216e-06
8.84972e-06
8.65897e-05
8.34091e-05
-3.67676e-05
-8.37647e-05
8.31945e-05
-3.19843e-05
8.31139e-05
-2.71503e-05
8.31667e-05
-2.22407e-05
8.33486e-05
-1.72781e-05
8.36544e-05
-1.22711e-05
8.40787e-05
-7.22527e-06
8.46157e-05
-2.14686e-06
8.52588e-05
2.95908e-06
8.10642e-06
8.60021e-05
8.34916e-05
-3.63431e-05
-8.39161e-05
8.32042e-05
-3.16969e-05
8.30479e-05
-2.69941e-05
8.30229e-05
-2.22156e-05
8.3126e-05
-1.73813e-05
8.33539e-05
-1.2499e-05
8.37029e-05
-7.57424e-06
8.41691e-05
-2.61301e-06
8.4748e-05
2.38017e-06
7.41838e-06
8.5436e-05
8.35294e-05
-3.58562e-05
-8.40162e-05
8.31766e-05
-3.13442e-05
8.29532e-05
-2.67706e-05
8.28594e-05
-2.21219e-05
8.28933e-05
-1.74151e-05
8.30524e-05
-1.26581e-05
8.33344e-05
-7.85623e-06
8.37367e-05
-3.01536e-06
8.42566e-05
1.8603e-06
6.78296e-06
8.4892e-05
8.3529e-05
-3.53132e-05
-8.4072e-05
8.31178e-05
-3.09329e-05
8.28345e-05
-2.64873e-05
8.26798e-05
-2.19672e-05
8.26523e-05
-1.73877e-05
8.27505e-05
-1.27564e-05
8.29729e-05
-8.07861e-06
8.33179e-05
-3.36035e-06
8.37838e-05
1.39441e-06
6.19696e-06
8.43698e-05
8.34967e-05
-3.47197e-05
-8.40902e-05
8.3033e-05
-3.04692e-05
8.26962e-05
-2.61506e-05
8.24873e-05
-2.17582e-05
8.24053e-05
-1.73058e-05
8.24494e-05
-1.28004e-05
8.26185e-05
-8.24776e-06
8.29119e-05
-3.65373e-06
8.33286e-05
9.7772e-07
5.65692e-06
8.38686e-05
8.34375e-05
-3.40807e-05
-8.40765e-05
8.29268e-05
-2.99585e-05
8.25423e-05
-2.5766e-05
8.22849e-05
-2.15009e-05
8.21544e-05
-1.71752e-05
8.21501e-05
-1.27961e-05
8.22715e-05
-8.36924e-06
8.25184e-05
-3.90061e-06
8.28903e-05
6.05838e-07
5.15943e-06
8.33878e-05
8.33564e-05
-3.3401e-05
-8.40361e-05
8.28035e-05
-2.94057e-05
8.23762e-05
-2.53387e-05
8.20755e-05
-2.12002e-05
8.19014e-05
-1.70011e-05
8.18537e-05
-1.27484e-05
8.19323e-05
-8.44785e-06
8.21372e-05
-4.10546e-06
8.24683e-05
2.7478e-07
4.7012e-06
8.29265e-05
8.32574e-05
-3.26847e-05
-8.39737e-05
8.26667e-05
-2.8815e-05
8.2201e-05
-2.4873e-05
8.18614e-05
-2.08606e-05
8.16482e-05
-1.67879e-05
8.15615e-05
-1.26617e-05
8.16014e-05
-8.48779e-06
8.17682e-05
-4.27222e-06
8.2062e-05
-1.9019e-08
4.27916e-06
8.2484e-05
8.31442e-05
-3.19356e-05
-8.38933e-05
8.25196e-05
-2.81904e-05
8.20194e-05
-2.43727e-05
8.16448e-05
-2.0486e-05
8.13963e-05
-1.65395e-05
8.12744e-05
-1.25397e-05
8.12793e-05
-8.4927e-06
8.14114e-05
-4.40433e-06
8.16712e-05
-2.78748e-07
3.89049e-06
8.20598e-05
8.30199e-05
-3.11571e-05
-8.37984e-05
8.23648e-05
-2.75354e-05
8.18335e-05
-2.38414e-05
8.14274e-05
-2.00798e-05
8.11472e-05
-1.62592e-05
8.09933e-05
-1.23859e-05
8.09664e-05
-8.4658e-06
8.1067e-05
-4.50486e-06
8.12955e-05
-5.07254e-07
3.53262e-06
8.16533e-05
8.28873e-05
-3.03521e-05
-8.36923e-05
8.22049e-05
-2.68529e-05
8.16456e-05
-2.32821e-05
8.1211e-05
-1.96452e-05
8.09019e-05
-1.59502e-05
8.07191e-05
-1.22031e-05
8.06632e-05
-8.40991e-06
8.07349e-05
-4.57652e-06
8.09347e-05
-7.07085e-07
3.20319e-06
8.12641e-05
8.27488e-05
-2.95234e-05
-8.35775e-05
8.20417e-05
-2.61458e-05
8.14572e-05
-2.26976e-05
8.09968e-05
-1.91849e-05
8.06616e-05
-1.5615e-05
8.04524e-05
-1.19939e-05
8.03701e-05
-8.32758e-06
8.04153e-05
-4.62172e-06
8.05887e-05
-8.8053e-07
2.90008e-06
8.08918e-05
8.26065e-05
-2.86733e-05
-8.34566e-05
8.18771e-05
-2.54165e-05
8.12697e-05
-2.20902e-05
8.0786e-05
-1.87011e-05
8.0427e-05
-1.5256e-05
8.01938e-05
-1.17607e-05
8.00873e-05
-8.22103e-06
8.01082e-05
-4.64262e-06
8.02573e-05
-1.02965e-06
2.62131e-06
8.0536e-05
8.24621e-05
-2.7804e-05
-8.33314e-05
8.17126e-05
-2.4667e-05
8.10846e-05
-2.14622e-05
8.05796e-05
-1.81961e-05
8.01989e-05
-1.48754e-05
7.99438e-05
-1.15055e-05
7.9815e-05
-8.09229e-06
7.98136e-05
-4.64118e-06
7.99402e-05
-1.15633e-06
2.36513e-06
8.01964e-05
8.23171e-05
-2.69173e-05
-8.32038e-05
8.15495e-05
-2.38994e-05
8.09026e-05
-2.08153e-05
8.03783e-05
-1.76718e-05
7.99779e-05
-1.4475e-05
7.97027e-05
-1.12303e-05
7.95535e-05
-7.94318e-06
7.95315e-05
-4.61915e-06
7.96374e-05
-1.26224e-06
2.12988e-06
7.98727e-05
8.21728e-05
-2.6015e-05
-8.30751e-05
8.13887e-05
-2.31153e-05
8.07248e-05
-2.01514e-05
8.01829e-05
-1.71299e-05
7.97645e-05
-1.40565e-05
7.94708e-05
-1.09366e-05
7.93029e-05
-7.77533e-06
7.92619e-05
-4.57813e-06
7.93486e-05
-1.34896e-06
1.91407e-06
7.95644e-05
8.20303e-05
-2.50984e-05
-8.29468e-05
8.12313e-05
-2.23163e-05
8.05519e-05
-1.94721e-05
7.99939e-05
-1.6572e-05
7.9559e-05
-1.36216e-05
7.92484e-05
-1.06259e-05
7.90633e-05
-7.59024e-06
7.90047e-05
-4.51958e-06
7.90736e-05
-1.41789e-06
1.71632e-06
7.92714e-05
8.18904e-05
-2.4169e-05
-8.28198e-05
8.10779e-05
-2.15038e-05
8.03844e-05
-1.87785e-05
7.98117e-05
-1.59993e-05
7.93617e-05
-1.31715e-05
7.90355e-05
-1.02998e-05
7.88345e-05
-7.38926e-06
7.87598e-05
-4.44484e-06
7.88122e-05
-1.47035e-06
1.53533e-06
7.89932e-05
8.1754e-05
-2.3228e-05
-8.2695e-05
8.09292e-05
-2.0679e-05
8.02227e-05
-1.80721e-05
7.96367e-05
-1.54133e-05
7.91727e-05
-1.27075e-05
7.88323e-05
-9.95933e-06
7.86167e-05
-7.17363e-06
7.85269e-05
-4.35512e-06
7.85641e-05
-1.50754e-06
1.36993e-06
7.87295e-05
8.16216e-05
-2.22763e-05
-8.25733e-05
8.07856e-05
-1.98429e-05
8.00674e-05
-1.73539e-05
7.94691e-05
-1.4815e-05
7.89924e-05
-1.22308e-05
7.86388e-05
-9.60574e-06
7.84097e-05
-6.94448e-06
7.83061e-05
-4.25155e-06
7.83291e-05
-1.53058e-06
1.219e-06
7.848e-05
8.14938e-05
-2.13151e-05
-8.24551e-05
8.06476e-05
-1.89967e-05
7.99187e-05
-1.6625e-05
7.93091e-05
-1.42055e-05
7.88207e-05
-1.17424e-05
7.8455e-05
-9.24004e-06
7.82134e-05
-6.70285e-06
7.8097e-05
-4.13517e-06
7.81069e-05
-1.54049e-06
1.08153e-06
7.82444e-05
8.1371e-05
-2.03451e-05
-8.23409e-05
8.05154e-05
-1.81411e-05
7.97767e-05
-1.58863e-05
7.91568e-05
-1.35856e-05
7.86577e-05
-1.12432e-05
7.82808e-05
-8.86319e-06
7.80277e-05
-6.44972e-06
7.78995e-05
-4.00695e-06
7.78972e-05
-1.53824e-06
9.56537e-07
7.80222e-05
8.12534e-05
-1.93672e-05
-8.22313e-05
8.03894e-05
-1.72771e-05
7.96417e-05
-1.51386e-05
7.90124e-05
-1.29563e-05
7.85034e-05
-1.07342e-05
7.81163e-05
-8.47609e-06
7.78525e-05
-6.18596e-06
7.77133e-05
-3.86776e-06
7.76998e-05
-1.52472e-06
8.43135e-07
7.78132e-05
8.11414e-05
-1.83821e-05
-8.21265e-05
8.02697e-05
-1.64053e-05
7.95137e-05
-1.43827e-05
7.88758e-05
-1.23184e-05
7.83577e-05
-1.02161e-05
7.79612e-05
-8.07953e-06
7.76876e-05
-5.9124e-06
7.75383e-05
-3.71846e-06
7.75143e-05
-1.50077e-06
7.40479e-07
7.7617e-05
8.10351e-05
-1.73904e-05
-8.20268e-05
8.01564e-05
-1.55266e-05
7.9393e-05
-1.36193e-05
7.87471e-05
-1.16725e-05
7.82207e-05
-9.6897e-06
7.78154e-05
-7.67429e-06
7.75328e-05
-5.62981e-06
7.73742e-05
-3.55979e-06
7.73406e-05
-1.46718e-06
6.47776e-07
7.74333e-05
8.09348e-05
-1.63928e-05
-8.19324e-05
8.00496e-05
-1.46414e-05
7.92793e-05
-1.2849e-05
7.86262e-05
-1.10194e-05
7.80922e-05
-9.15566e-06
7.76789e-05
-7.26105e-06
7.7388e-05
-5.33889e-06
7.72207e-05
-3.3925e-06
7.71782e-05
-1.42466e-06
5.64283e-07
7.72617e-05
8.08404e-05
-1.53898e-05
-8.18434e-05
7.99494e-05
-1.37504e-05
7.91729e-05
-1.20726e-05
7.85132e-05
-1.03597e-05
7.79721e-05
-8.61463e-06
7.75516e-05
-6.84048e-06
7.7253e-05
-5.04032e-06
7.70778e-05
-3.21726e-06
7.7027e-05
-1.37391e-06
4.89298e-07
7.7102e-05
8.0752e-05
-1.43819e-05
-8.17599e-05
7.98558e-05
-1.28541e-05
7.90736e-05
-1.12904e-05
7.84079e-05
-9.69389e-06
7.78605e-05
-8.06721e-06
7.74332e-05
-6.41319e-06
7.71276e-05
-4.73472e-06
7.6945e-05
-3.0347e-06
7.68867e-05
-1.31558e-06
4.22156e-07
7.69538e-05
8.06698e-05
-1.33697e-05
-8.1682e-05
7.97688e-05
-1.19531e-05
7.89815e-05
-1.05032e-05
7.83103e-05
-9.02263e-06
7.7757e-05
-7.51397e-06
7.73236e-05
-5.97975e-06
7.70115e-05
-4.42267e-06
7.68223e-05
-2.84542e-06
7.6757e-05
-1.25028e-06
3.62234e-07
7.68169e-05
8.05936e-05
-1.23536e-05
-8.16097e-05
7.96884e-05
-1.10479e-05
7.88965e-05
-9.71133e-06
7.82203e-05
-8.34641e-06
7.76617e-05
-6.95542e-06
7.72227e-05
-5.54071e-06
7.69047e-05
-4.10474e-06
7.67093e-05
-2.65e-06
7.66376e-05
-1.1786e-06
3.08935e-07
7.66909e-05
8.05236e-05
-1.1334e-05
-8.15432e-05
7.96145e-05
-1.01388e-05
7.88185e-05
-8.9153e-06
7.81378e-05
-7.66569e-06
7.75744e-05
-6.39207e-06
7.71303e-05
-5.09657e-06
7.6807e-05
-3.78144e-06
7.6606e-05
-2.44896e-06
7.65285e-05
-1.10108e-06
2.61693e-07
7.65757e-05
8.04597e-05
-1.03114e-05
-8.14823e-05
7.95472e-05
-9.22636e-06
7.87475e-05
-8.11556e-06
7.80628e-05
-6.98095e-06
7.74951e-05
-5.82439e-06
7.70463e-05
-4.64782e-06
7.67182e-05
-3.45328e-06
7.6512e-05
-2.24283e-06
7.64292e-05
-1.01824e-06
2.1997e-07
7.64709e-05
8.04019e-05
-9.28615e-06
-8.14271e-05
7.94864e-05
-8.31095e-06
7.86834e-05
-7.31254e-06
7.79951e-05
-6.29261e-06
7.74235e-05
-5.25283e-06
7.69706e-05
-4.19493e-06
7.66381e-05
-3.12072e-06
7.64273e-05
-2.03207e-06
7.63397e-05
-9.30581e-07
1.8325e-07
7.63764e-05
8.03501e-05
-8.25864e-06
-8.13776e-05
7.94321e-05
-7.39297e-06
7.86262e-05
-6.50664e-06
7.79347e-05
-5.6011e-06
7.73597e-05
-4.67782e-06
7.69031e-05
-3.73832e-06
7.65666e-05
-2.78422e-06
7.63516e-05
-1.81717e-06
7.62597e-05
-8.38589e-07
1.51038e-07
7.62919e-05
8.03043e-05
-7.22924e-06
-8.13337e-05
7.93841e-05
-6.4728e-06
7.85757e-05
-5.69825e-06
7.78814e-05
-4.90681e-06
7.73034e-05
-4.09977e-06
7.68435e-05
-3.27843e-06
7.65035e-05
-2.44421e-06
7.62849e-05
-1.59855e-06
7.6189e-05
-7.42721e-07
1.22854e-07
7.62172e-05
8.02645e-05
-6.19832e-06
-8.12954e-05
7.93425e-05
-5.55082e-06
7.8532e-05
-4.88775e-06
7.78353e-05
-4.21014e-06
7.72546e-05
-3.51906e-06
7.67918e-05
-2.81565e-06
7.64487e-05
-2.1011e-06
7.62268e-05
-1.37667e-06
7.61275e-05
-6.43423e-07
9.8234e-08
7.61521e-05
8.02306e-05
-5.16622e-06
-8.12627e-05
7.93071e-05
-4.62737e-06
7.84949e-05
-4.07551e-06
7.77962e-05
-3.51145e-06
7.72132e-05
-2.93609e-06
7.67479e-05
-2.35038e-06
7.64021e-05
-1.75531e-06
7.61774e-05
-1.15193e-06
7.60751e-05
-5.41135e-07
7.67238e-08
7.60966e-05
8.02025e-05
-4.1333e-06
-8.12354e-05
7.9278e-05
-3.70282e-06
7.84643e-05
-3.26187e-06
7.7764e-05
-2.81109e-06
7.71791e-05
-2.35122e-06
7.67117e-05
-1.883e-06
7.63636e-05
-1.40723e-06
7.61365e-05
-9.24746e-07
7.60316e-05
-4.36286e-07
5.78732e-08
7.60505e-05
8.01803e-05
-3.0999e-06
-8.12137e-05
7.9255e-05
-2.77749e-06
7.84403e-05
-2.44717e-06
7.77386e-05
-2.10943e-06
7.71522e-05
-1.76481e-06
7.66831e-05
-1.41388e-06
7.63331e-05
-1.05725e-06
7.61039e-05
-6.95539e-07
7.5997e-05
-3.29305e-07
4.12335e-08
7.60136e-05
8.01639e-05
-2.06635e-06
-8.11975e-05
7.92381e-05
-1.85171e-06
7.84227e-05
-1.63175e-06
7.77201e-05
-1.4068e-06
7.71325e-05
-1.17722e-06
7.6662e-05
-9.43415e-07
7.63105e-05
-7.05773e-07
7.60797e-05
-4.64722e-07
7.5971e-05
-2.20628e-07
2.63514e-08
7.59859e-05
8.01532e-05
-1.03296e-06
-8.11866e-05
7.92273e-05
-9.25787e-07
7.84114e-05
-8.15919e-07
7.77082e-05
-7.03534e-07
7.71198e-05
-5.88824e-07
7.66483e-05
-4.71981e-07
7.62958e-05
-3.53211e-07
7.60638e-05
-2.32723e-07
7.59539e-05
-1.10703e-07
1.27662e-08
7.59674e-05
8.01481e-05
-8.11811e-05
7.92223e-05
7.84064e-05
7.77029e-05
7.71141e-05
7.66421e-05
7.62889e-05
7.60561e-05
7.59454e-05
7.59582e-05
7.85419e-05
1.15951e-06
7.83087e-05
1.41027e-06
7.8173e-05
2.10734e-06
7.81533e-05
3.04568e-06
7.81033e-05
3.84944e-06
7.80203e-05
4.63107e-06
7.79286e-05
5.46513e-06
7.78341e-05
6.34664e-06
7.77386e-05
7.27488e-06
7.76467e-05
8.26016e-06
7.7565e-05
9.31283e-06
7.75014e-05
1.0442e-05
7.74654e-05
1.16567e-05
7.74689e-05
1.29662e-05
7.75265e-05
1.43785e-05
7.76559e-05
1.58997e-05
7.78794e-05
1.75305e-05
7.82282e-05
1.92589e-05
7.87676e-05
2.10365e-05
2.27092e-05
7.84867e-05
9.1067e-07
7.83505e-05
1.54648e-06
7.82413e-05
2.21655e-06
7.82178e-05
3.06922e-06
7.81835e-05
3.88369e-06
7.81286e-05
4.68595e-06
7.80693e-05
5.52445e-06
7.80114e-05
6.40451e-06
7.79579e-05
7.32846e-06
7.79136e-05
8.30445e-06
7.78853e-05
9.34107e-06
7.78813e-05
1.0446e-05
7.79113e-05
1.16267e-05
7.79874e-05
1.28901e-05
7.81243e-05
1.42416e-05
7.83399e-05
1.5684e-05
7.86565e-05
1.72139e-05
7.91023e-05
1.88131e-05
7.97125e-05
2.04263e-05
2.19176e-05
7.83659e-05
7.98679e-07
7.83343e-05
1.5781e-06
7.82801e-05
2.27078e-06
7.82643e-05
3.08503e-06
7.82483e-05
3.89969e-06
7.82223e-05
4.71194e-06
7.81952e-05
5.5515e-06
7.81728e-05
6.42692e-06
7.8159e-05
7.34232e-06
7.8159e-05
8.30446e-06
7.81796e-05
9.32041e-06
7.82291e-05
1.03965e-05
7.83172e-05
1.15386e-05
7.84556e-05
1.27517e-05
7.86583e-05
1.40389e-05
7.89419e-05
1.54004e-05
7.93258e-05
1.683e-05
7.98312e-05
1.83077e-05
8.04784e-05
1.97791e-05
2.11126e-05
7.83237e-05
7.42515e-07
7.8321e-05
1.58085e-06
7.8302e-05
2.28974e-06
7.8302e-05
3.08508e-06
7.8305e-05
3.89669e-06
7.83053e-05
4.71159e-06
7.83084e-05
5.5484e-06
7.83193e-05
6.41605e-06
7.83423e-05
7.31929e-06
7.8383e-05
8.26384e-06
7.84479e-05
9.25549e-06
7.8545e-05
1.02994e-05
7.86838e-05
1.13999e-05
7.88753e-05
1.25602e-05
7.91323e-05
1.37819e-05
7.94695e-05
1.50631e-05
7.99034e-05
1.63961e-05
8.04508e-05
1.77604e-05
8.11256e-05
1.91042e-05
2.03025e-05
7.83096e-05
7.13231e-07
7.83195e-05
1.571e-06
7.83224e-05
2.2868e-06
7.83367e-05
3.07076e-06
7.8357e-05
3.87645e-06
7.83804e-05
4.68813e-06
7.84106e-05
5.51826e-06
7.84517e-05
6.37495e-06
7.85081e-05
7.26283e-06
7.85853e-05
8.18668e-06
7.86896e-05
9.1512e-06
7.88286e-05
1.01604e-05
7.9011e-05
1.12174e-05
7.92472e-05
1.23241e-05
7.95485e-05
1.34806e-05
7.99279e-05
1.46837e-05
8.03992e-05
1.59249e-05
8.09756e-05
1.7184e-05
8.16672e-05
1.84126e-05
1.94935e-05
7.83101e-05
6.95679e-07
7.83265e-05
1.5546e-06
7.83434e-05
2.2699e-06
7.83702e-05
3.04397e-06
7.84058e-05
3.84093e-06
7.84492e-05
4.64473e-06
7.85029e-05
5.46447e-06
7.85708e-05
6.30713e-06
7.86568e-05
7.17677e-06
7.87662e-05
8.07734e-06
7.89048e-05
9.01253e-06
7.90799e-05
9.98537e-06
7.92993e-05
1.09979e-05
7.95725e-05
1.2051e-05
7.99095e-05
1.31436e-05
8.03214e-05
1.42717e-05
8.08198e-05
1.54265e-05
8.14153e-05
1.65885e-05
8.21152e-05
1.77127e-05
1.86895e-05
7.83179e-05
6.82335e-07
7.83386e-05
1.53385e-06
7.83653e-05
2.24327e-06
7.84028e-05
3.00642e-06
7.84517e-05
3.79199e-06
7.85122e-05
4.58423e-06
7.85864e-05
5.39031e-06
7.86774e-05
6.21612e-06
7.87892e-05
7.06504e-06
7.89263e-05
7.94019e-06
7.90944e-05
8.84441e-06
7.93e-05
9.77983e-06
7.95502e-05
1.07476e-05
7.98534e-05
1.17478e-05
8.02185e-05
1.27785e-05
8.06549e-05
1.38353e-05
8.11722e-05
1.49092e-05
8.1779e-05
1.59817e-05
8.24806e-05
1.70111e-05
1.7895e-05
7.83287e-05
6.69851e-07
7.83532e-05
1.50936e-06
7.83874e-05
2.20913e-06
7.84342e-05
2.95956e-06
7.84949e-05
3.73138e-06
7.857e-05
4.50911e-06
7.86615e-05
5.29875e-06
7.87724e-05
6.10528e-06
7.8906e-05
6.93138e-06
7.90668e-05
7.77942e-06
7.92597e-05
8.65148e-06
7.94906e-05
9.54895e-06
7.9766e-05
1.04723e-05
8.0093e-05
1.14207e-05
8.04796e-05
1.2392e-05
8.09336e-05
1.33812e-05
8.14631e-05
1.43797e-05
8.20749e-05
1.53699e-05
8.27728e-05
1.63132e-05
1.71139e-05
7.83408e-05
6.56834e-07
7.83688e-05
1.48137e-06
7.84091e-05
2.16878e-06
7.84641e-05
2.90464e-06
7.85348e-05
3.66063e-06
7.86224e-05
4.4215e-06
7.87287e-05
5.19245e-06
7.88563e-05
5.97771e-06
7.90084e-05
6.7793e-06
7.91888e-05
7.59896e-06
7.94022e-05
8.4381e-06
7.96537e-05
9.29747e-06
7.9949e-05
1.01769e-05
8.02945e-05
1.10752e-05
8.06968e-05
1.19897e-05
8.11627e-05
1.29153e-05
8.16988e-05
1.38436e-05
8.23105e-05
1.47582e-05
8.30004e-05
1.56232e-05
1.63496e-05
7.83531e-05
6.42776e-07
7.83844e-05
1.45013e-06
7.843e-05
2.12317e-06
7.84919e-05
2.84275e-06
7.85713e-05
3.58116e-06
7.86695e-05
4.3233e-06
7.87882e-05
5.07378e-06
7.89297e-05
5.83618e-06
7.90971e-05
6.61199e-06
7.92936e-05
7.40237e-06
7.95235e-05
8.2082e-06
7.97913e-05
9.02967e-06
8.01021e-05
9.8662e-06
8.04612e-05
1.07161e-05
8.08744e-05
1.15765e-05
8.13473e-05
1.24424e-05
8.18853e-05
1.33056e-05
8.24927e-05
1.41508e-05
8.31712e-05
1.49447e-05
1.56047e-05
7.83653e-05
6.27569e-07
7.83995e-05
1.41596e-06
7.84496e-05
2.07306e-06
7.85174e-05
2.77491e-06
7.86043e-05
3.49429e-06
7.87114e-05
4.21622e-06
7.88404e-05
4.94483e-06
7.89934e-05
5.68318e-06
7.9173e-05
6.4323e-06
7.93825e-05
7.19287e-06
7.96255e-05
7.96529e-06
7.99058e-05
8.74935e-06
8.02279e-05
9.54408e-06
8.05965e-05
1.03476e-05
8.10163e-05
1.11567e-05
8.14921e-05
1.19666e-05
8.20283e-05
1.27694e-05
8.26282e-05
1.35509e-05
8.32925e-05
1.42804e-05
1.4881e-05
7.83772e-05
6.11286e-07
7.84139e-05
1.37925e-06
7.84678e-05
2.01916e-06
7.85407e-05
2.70206e-06
7.86337e-05
3.4012e-06
7.87482e-05
4.10179e-06
7.88855e-05
4.80749e-06
7.90478e-05
5.52095e-06
7.92373e-05
6.24278e-06
7.94568e-05
6.97329e-06
7.97096e-05
7.71249e-06
7.99992e-05
8.45983e-06
8.03292e-05
9.21407e-06
8.07036e-05
9.9731e-06
8.11266e-05
1.07337e-05
8.16019e-05
1.14912e-05
8.21331e-05
1.22382e-05
8.27227e-05
1.29613e-05
8.33708e-05
1.36323e-05
1.41798e-05
7.83886e-05
5.9407e-07
7.84275e-05
1.34041e-06
7.84845e-05
1.96211e-06
7.85615e-05
2.62507e-06
7.86597e-05
3.30304e-06
7.87801e-05
3.9814e-06
7.89241e-05
4.66346e-06
7.90936e-05
5.35147e-06
7.92907e-05
6.0457e-06
7.95178e-05
6.74615e-06
7.97778e-05
7.45253e-06
8.00736e-05
8.16403e-06
8.04085e-05
8.87919e-06
8.07858e-05
9.59579e-06
8.12089e-05
1.03106e-05
8.16809e-05
1.10192e-05
8.22047e-05
1.17144e-05
8.27819e-05
1.23841e-05
8.34123e-05
1.30019e-05
1.35019e-05
7.83996e-05
5.76086e-07
7.84402e-05
1.29982e-06
7.84998e-05
1.90253e-06
7.85801e-05
2.54476e-06
7.86823e-05
3.20082e-06
7.88074e-05
3.85634e-06
7.89566e-05
4.51425e-06
7.91316e-05
5.17648e-06
7.93343e-05
5.84304e-06
7.95668e-05
6.51365e-06
7.98315e-05
7.18778e-06
8.01311e-05
7.86443e-06
8.04683e-05
8.542e-06
8.08459e-05
9.21821e-06
8.12666e-05
9.8899e-06
8.17331e-05
1.05527e-05
8.22474e-05
1.12001e-05
8.28107e-05
1.18207e-05
8.34223e-05
1.23903e-05
1.28477e-05
7.84101e-05
5.57498e-07
7.84521e-05
1.25787e-06
7.85136e-05
1.84097e-06
7.85965e-05
2.46187e-06
7.87019e-05
3.0955e-06
7.88305e-05
3.72773e-06
7.89835e-05
4.36121e-06
7.91624e-05
4.99755e-06
7.93689e-05
5.63654e-06
7.96049e-05
6.27769e-06
7.98724e-05
6.92029e-06
8.01736e-05
7.56319e-06
8.0511e-05
8.20469e-06
8.08867e-05
8.8425e-06
8.1303e-05
9.47355e-06
8.1762e-05
1.00937e-05
8.22653e-05
1.06968e-05
8.28136e-05
1.12724e-05
8.34058e-05
1.17981e-05
1.22174e-05
7.84202e-05
5.38462e-07