/*--------------------------------*- C++ -*----------------------------------*\
  =========                 |
  \\      /  F ield         | OpenFOAM: The Open Source CFD Toolbox
   \\    /   O peration     | Website:  https://openfoam.org
    \\  /    A nd           | Version:  6
     \\/     M anipulation  |
\*---------------------------------------------------------------------------*/
FoamFile
{
    version     2.0;
    format      ascii;
    class       volVectorField;
    location    "0.45";
    object      U;
}
// * * * * * * * * * * * * * * * * * * * * * * * * * * * * * * * * * * * * * //

dimensions      [0 1 -1 0 0 0 0];

internalField   nonuniform List<vector> 
5600
(
(1.13831 0.00108963 3.75402e-19)
(1.03583 0.00164601 -6.44388e-18)
(0.994701 0.00198786 6.42918e-18)
(0.997616 0.00222817 0)
(0.999979 0.00258784 0)
(0.996531 0.00308973 0)
(0.991601 0.0036506 -1.19929e-17)
(0.986446 0.0042458 1.19657e-17)
(0.980706 0.00489205 0)
(0.974116 0.0056046 0)
(0.9666 0.00639309 0)
(0.958093 0.00726851 0)
(0.94849 0.00824506 0)
(0.937666 0.00933936 -2.36107e-17)
(0.925478 0.0105696 2.35578e-17)
(0.91176 0.0119537 -4.70113e-17)
(0.89633 0.0135046 4.69065e-17)
(0.878995 0.015219 0)
(0.859565 0.017055 -3.64841e-19)
(0.837898 0.0188769 0)
(1.14045 0.00229513 -3.70168e-19)
(1.03496 0.00419612 6.35465e-18)
(0.994535 0.00545168 -6.34251e-18)
(0.998055 0.00650051 0)
(1.00032 0.00772057 0)
(0.99676 0.00917425 2.44843e-17)
(0.991852 0.0107728 1.03288e-22)
(0.986755 0.0124939 -7.39023e-19)
(0.98108 0.0143682 1.09798e-22)
(0.974569 0.0164285 -2.35623e-17)
(0.967155 0.0187037 0)
(0.958776 0.0212271 -4.76803e-17)
(0.949333 0.0240395 4.68579e-17)
(0.938707 0.0271881 0)
(0.926763 0.0307241 0)
(0.913346 0.0346978 0)
(0.898285 0.039144 0)
(0.881395 0.04405 -4.64209e-17)
(0.862487 0.0492946 4.66958e-17)
(0.84133 0.0545305 4.55556e-17)
(1.14347 0.00297014 0)
(1.03494 0.00676969 0)
(0.994243 0.00908277 0)
(0.998289 0.0107751 0)
(1.0007 0.0127822 2.34626e-17)
(0.997174 0.0151838 -2.416e-17)
(0.992367 0.0178114 -1.46208e-18)
(0.987415 0.0206393 -7.2996e-19)
(0.981907 0.0237212 2.33245e-17)
(0.975594 0.0271088 -2.18344e-17)
(0.968422 0.030848 -1.45349e-18)
(0.960336 0.0349932 4.71693e-17)
(0.95125 0.0396102 -4.78244e-17)
(0.941059 0.0447748 1.4471e-18)
(0.929646 0.0505693 4.62399e-17)
(0.916874 0.0570732 -9.37871e-17)
(0.902591 0.0643416 -1.44132e-18)
(0.886625 0.072353 4.60373e-17)
(0.868785 0.0809117 -1.43657e-18)
(0.84876 0.0894773 -7.17618e-19)
(1.14742 0.00388552 0)
(1.03528 0.00915557 -1.44744e-18)
(0.993889 0.0124091 0)
(0.99848 0.0148171 0)
(1.00117 0.0176414 0)
(0.997787 0.0209819 0)
(0.99317 0.0246204 1.44057e-18)
(0.988462 0.0285313 2.44658e-17)
(0.983237 0.0327895 -2.3004e-17)
(0.977255 0.0374644 -1.43635e-18)
(0.970477 0.0426181 2.86988e-18)
(0.962865 0.048324 0)
(0.954351 0.054671 -4.43964e-17)
(0.944851 0.0617607 4.43526e-17)
(0.934273 0.0697028 4.5739e-17)
(0.922511 0.0786038 -4.56939e-17)
(0.909439 0.0885372 9.2726e-17)
(0.894909 0.0994769 -9.12093e-17)
(0.878743 0.111163 1.42377e-18)
(0.860577 0.122893 1.42297e-18)
(1.15227 0.00483396 -5.62093e-18)
(1.03576 0.0113857 7.09722e-18)
(0.99349 0.0154732 -1.13535e-17)
(0.998729 0.0185812 -1.13486e-17)
(1.00179 0.0222097 2.26879e-17)
(0.998621 0.0264614 2.26783e-17)
(0.994274 0.0310758 -2.26689e-17)
(0.989907 0.0360278 1.41621e-18)
(0.985075 0.0414099 1.41562e-18)
(0.979551 0.047306 4.52811e-17)
(0.973317 0.053792 -9.0524e-17)
(0.966356 0.0609578 1.41357e-18)
(0.958621 0.0689113 4.66369e-17)
(0.950059 0.0777759 1.41264e-18)
(0.94061 0.0876839 -4.37736e-17)
(0.930207 0.0987635 4.7989e-17)
(0.918761 0.111104 1.41083e-18)
(0.906159 0.124675 0)
(0.892256 0.139159 1.40962e-18)
(0.876668 0.153715 1.40942e-18)
(1.15796 0.00575928 5.50043e-18)
(1.0363 0.0134573 -5.55726e-18)
(0.993049 0.0182624 1.38996e-18)
(0.999079 0.022011 0)
(1.0026 0.0264111 2.22483e-17)
(0.999695 0.0315393 -2.22529e-17)
(0.995689 0.0370857 1.39109e-18)
(0.991745 0.0430238 -4.7307e-17)
(0.987403 0.0494608 -2.78348e-18)
(0.98245 0.0564916 8.90844e-17)
(0.976893 0.0642026 -4.73355e-17)
(0.970739 0.0726965 -1.39251e-18)
(0.96397 0.0820963 -4.73544e-17)
(0.956566 0.092541 -4.59709e-17)
(0.948508 0.104179 8.77786e-17)
(0.939773 0.117155 8.64025e-17)
(0.930321 0.131566 -9.05999e-17)
(0.920078 0.147378 8.78294e-17)
(0.908949 0.164225 -1.79874e-16)
(0.896557 0.181147 8.78759e-17)
(1.16443 0.00668264 0)
(1.03682 0.0153268 0)
(0.992552 0.0206884 -1.35895e-18)
(0.999572 0.025026 2.17622e-17)
(1.00363 0.0301796 -2.17815e-17)
(1.00103 0.036152 -1.36253e-18)
(0.997409 0.0425794 -1.36374e-18)
(0.993954 0.0494364 1.36495e-18)
(0.990178 0.0568423 1.36615e-18)
(0.985887 0.0649003 0)
(0.981118 0.0737043 4.51623e-17)
(0.975903 0.0833661 1.82972e-22)
(0.970256 0.0940182 -4.24995e-17)
(0.964193 0.105809 -8.64459e-17)
(0.957739 0.118898 1.75789e-16)
(0.950924 0.133432 -8.65965e-17)
(0.943759 0.149517 8.80481e-17)
(0.936217 0.167114 -8.67472e-17)
(0.92826 0.185817 -8.8201e-17)
(0.919544 0.204583 8.6902e-17)
(1.17161 0.00778027 0)
(1.03711 0.0168757 1.32415e-18)
(0.991956 0.0225682 -2.1224e-17)
(1.00026 0.027552 2.25868e-17)
(1.00492 0.0334855 -2.1292e-17)
(1.0026 0.0402644 2.3992e-17)
(0.999402 0.0475101 0)
(0.996481 0.0552035 1.33718e-18)
(0.993328 0.0634724 0)
(0.989771 0.0724265 -1.3415e-18)
(0.985875 0.0821651 4.29976e-17)
(0.981702 0.0928048 -4.30668e-17)
(0.977296 0.104482 -8.62729e-17)
(0.972711 0.117349 8.50617e-17)
(0.968018 0.131563 0)
(0.963301 0.147272 0)
(0.958626 0.164581 8.68311e-17)
(0.95402 0.183452 1.63799e-22)
(0.949512 0.203463 -8.71111e-17)
(0.944807 0.223552 8.86093e-17)
(1.1794 0.00990166 -4.46327e-18)
(1.03658 0.0175827 4.51334e-18)
(0.991269 0.0233833 0)
(1.00131 0.0295626 -1.94405e-18)
(1.00645 0.0364305 -2.07854e-17)
(1.00435 0.0439539 -2.21371e-17)
(1.00159 0.0519467 8.35384e-17)
(0.999243 0.060401 -4.31774e-17)
(0.996754 0.0694335 -4.19692e-17)
(0.993981 0.0791597 4.33843e-17)
(0.99102 0.0896846 -8.43413e-17)
(0.987957 0.101125 1.69088e-16)
(0.984866 0.113615 1.67507e-22)
(0.981838 0.127299 -8.49512e-17)
(0.97899 0.142323 0)
(0.976458 0.158826 8.53617e-17)
(0.974372 0.176903 -1.71136e-16)
(0.972822 0.19653 8.57748e-17)
(0.971948 0.217293 0)
(0.971549 0.238134 0)
(1.18786 0.0141233 -5.57546e-18)
(1.03338 0.0161387 4.38687e-18)
(0.991031 0.0224038 0)
(1.00332 0.0311716 2.08186e-17)
(1.00821 0.0392361 -2.0252e-17)
(1.00615 0.0473566 -4.06329e-17)
(1.00393 0.056001 -7.19245e-23)
(1.00221 0.0651565 8.17868e-17)
(1.00041 0.0748791 -8.20494e-17)
(0.998465 0.085289 4.11566e-17)
(0.996482 0.0965023 -8.25786e-17)
(0.994566 0.108634 8.28452e-17)
(0.992815 0.121807 -8.31134e-17)
(0.991353 0.13615 8.33829e-17)
(0.990335 0.151787 8.36538e-17)
(0.989951 0.168829 -8.39261e-17)
(0.990401 0.187347 0)
(0.991874 0.207336 -8.44745e-17)
(0.994642 0.228531 8.47513e-17)
(0.998615 0.249901 8.50058e-17)
(0.810728 0.0204588 0)
(0.773855 0.0226314 0)
(0.729597 0.0251225 4.24737e-17)
(0.675937 0.0279773 -2.30546e-17)
(0.610194 0.0311936 -2.52105e-17)
(0.528981 0.0346082 4.17065e-17)
(0.428736 0.0376595 -1.54897e-17)
(0.30611 0.0390225 3.49549e-17)
(0.160125 0.0360592 0)
(0.0446783 0.0203791 0)
(0.814896 0.0593937 -1.84298e-17)
(0.778833 0.0660099 -5.94019e-17)
(0.73537 0.0736218 -2.13642e-17)
(0.682636 0.0823657 2.31922e-17)
(0.61795 0.0922402 2.53568e-17)
(0.53788 0.102743 -5.592e-17)
(0.438738 0.112183 4.6715e-17)
(0.316926 0.116499 -8.78024e-17)
(0.170458 0.107356 -1.0055e-17)
(0.0507763 0.0608751 6.42835e-17)
(0.823834 0.0974816 1.85058e-17)
(0.789269 0.108386 -1.98827e-17)
(0.747338 0.120957 4.29075e-17)
(0.696398 0.135393 4.65845e-17)
(0.633759 0.151689 -5.09417e-17)
(0.5559 0.168998 -2.80893e-17)
(0.458875 0.184525 3.12959e-17)
(0.338452 0.191511 -5.2949e-17)
(0.190995 0.175878 8.08751e-17)
(0.0629804 0.0998952 -1.5284e-16)
(0.837942 0.133853 3.70381e-17)
(0.805439 0.148889 0)
(0.765652 0.166214 0)
(0.717254 0.186057 -4.66196e-17)
(0.657518 0.20841 5.098e-17)
(0.582789 0.232079 1.96732e-21)
(0.488734 0.253175 0)
(0.370158 0.262351 7.0662e-17)
(0.221159 0.24018 -6.0708e-17)
(0.0808984 0.136255 1.88285e-16)
(0.857021 0.167262 -3.69426e-17)
(0.82705 0.186134 0)
(0.789919 0.207896 8.56384e-17)
(0.744699 0.232758 0)
(0.688597 0.260702 5.08238e-17)
(0.61777 0.290187 5.60454e-17)
(0.52739 0.316258 0)
(0.411022 0.327114 1.40821e-16)
(0.259907 0.298486 -2.01608e-17)
(0.103852 0.16886 -7.03207e-17)
(0.880454 0.196797 1.8645e-21)
(0.85339 0.21911 -1.57783e-16)
(0.819334 0.244893 -2.48454e-21)
(0.777816 0.274283 0)
(0.725938 0.30725 -5.04904e-17)
(0.659627 0.341902 -5.56568e-17)
(0.573465 0.372251 0)
(0.459557 0.384202 -1.3974e-16)
(0.305782 0.349226 -1.59927e-16)
(0.130919 0.196771 2.32276e-17)
(0.907367 0.221833 7.05184e-22)
(0.883465 0.247148 1.03539e-21)
(0.852793 0.276481 1.68588e-16)
(0.815376 0.309858 -1.20307e-21)
(0.768155 0.347218 -9.9945e-17)
(0.706794 0.386303 -1.10129e-16)
(0.625208 0.420122 -3.06438e-17)
(0.513878 0.432469 3.45211e-17)
(0.356965 0.391216 1.18438e-16)
(0.160949 0.219244 2.29093e-16)
(0.93675 0.242041 -1.63869e-21)
(0.916073 0.269962 7.71839e-17)
(0.888965 0.302377 -1.66434e-16)
(0.855899 0.33919 -4.51355e-17)
(0.813582 0.380287 2.4647e-16)
(0.757413 0.423018 1.08579e-16)
(0.680594 0.459414 -1.20755e-16)
(0.571877 0.471369 0)
(0.411465 0.423867 3.88203e-17)
(0.192653 0.235869 -4.04979e-16)
(0.967542 0.257516 -1.15185e-21)
(0.949624 0.28765 -7.59883e-17)
(0.92607 0.322738 3.74408e-21)
(0.897467 0.362502 -8.87975e-17)
(0.860192 0.406735 9.69268e-17)
(0.809441 0.452375 5.33422e-17)
(0.737663 0.490502 5.92857e-17)
(0.631729 0.50132 -3.3331e-17)
(0.467551 0.447567 3.80266e-17)
(0.224762 0.246743 1.76067e-16)
(0.997777 0.269794 -6.95194e-17)
(0.981517 0.301694 -7.45878e-17)
(0.961673 0.339092 8.03557e-17)
(0.937695 0.381332 8.70726e-17)
(0.905749 0.427989 -1.90006e-16)
(0.860863 0.475503 0)
(0.794531 0.514045 0)
(0.69137 0.522499 -3.25812e-17)
(0.522666 0.462246 3.71214e-17)
(0.255311 0.251641 0)
(1.02592 0.289258 6.79896e-17)
(1.01051 0.322095 7.30266e-17)
(0.994219 0.359801 0)
(0.974078 0.402205 -8.54146e-17)
(0.946511 0.448077 0)
(0.906142 0.493121 -1.02768e-16)
(0.84337 0.526995 -5.71609e-17)
(0.740812 0.528752 -6.43489e-17)
(0.566679 0.461287 -1.47067e-16)
(0.278823 0.247195 1.70613e-16)
(1.05672 0.306802 1.52532e-21)
(1.04472 0.340114 -1.48517e-16)
(1.03184 0.377257 2.10078e-21)
(1.01506 0.418512 8.68986e-17)
(0.990756 0.461778 0)
(0.952871 0.501975 1.04625e-16)
(0.890614 0.528399 0)
(0.785026 0.52079 1.3116e-16)
(0.602819 0.444891 1.44697e-20)
(0.296127 0.233093 -1.7411e-16)
(1.08894 0.320184 7.01138e-17)
(1.08078 0.352988 -7.53256e-17)
(1.07115 0.388905 2.43761e-16)
(1.05725 0.428035 -8.81826e-17)
(1.03529 0.467573 -9.6379e-17)
(0.998477 0.501812 -5.3115e-17)
(0.934972 0.519874 2.2514e-21)
(0.824636 0.502479 6.66486e-17)
(0.633409 0.418696 2.669e-16)
(0.30914 0.213366 4.42964e-17)
(1.12222 0.328618 -1.41898e-16)
(1.11759 0.360197 0)
(1.11082 0.394156 -4.272e-21)
(1.09918 0.430215 8.92699e-17)
(1.07854 0.46502 2.43992e-16)
(1.04143 0.49245 5.37964e-17)
(0.975148 0.501733 1.19835e-16)
(0.858698 0.474922 -1.01338e-16)
(0.657803 0.384832 -1.9338e-16)
(0.317766 0.189881 1.7983e-16)
(1.15583 0.331807 7.16209e-17)
(1.15421 0.361511 7.69521e-17)
(1.14969 0.392794 -1.66072e-16)
(1.13943 0.424914 -4.50771e-17)
(1.11886 0.454105 -1.97149e-16)
(1.0799 0.474046 -1.63056e-16)
(1.00915 0.474367 -2.42207e-16)
(0.885201 0.438864 1.36606e-16)
(0.674285 0.344558 0)
(0.321396 0.163802 -2.04755e-16)
(1.18877 0.329547 1.08167e-16)
(1.18948 0.356793 0)
(1.18639 0.384764 0)
(1.17641 0.412231 0)
(1.15452 0.435157 0)
(1.11205 0.447225 1.09521e-16)
(1.03517 0.438768 1.22041e-16)
(0.90256 0.395681 0)
(0.681783 0.299526 0)
(0.319832 0.136328 -9.17961e-17)
(1.21998 0.321862 -3.62092e-17)
(1.2222 0.346151 -8.43164e-22)
(1.21951 0.370283 -4.19899e-17)
(1.20857 0.392564 4.55945e-17)
(1.18384 0.408837 -4.98683e-17)
(1.13624 0.412997 1.37528e-16)
(1.05178 0.396343 -3.06555e-17)
(0.909756 0.347146 6.91861e-17)
(0.679895 0.251629 -1.98242e-17)
(0.313245 0.108638 9.23071e-17)
(1.24842 0.309009 7.25328e-17)
(1.25115 0.329952 -3.89686e-17)
(1.24772 0.349846 0)
(1.23444 0.366608 -4.56709e-17)
(1.20536 0.376113 0)
(1.15113 0.372664 -5.51071e-17)
(1.05797 0.34875 -3.0708e-17)
(0.906308 0.29519 3.46554e-17)
(0.668762 0.202764 0)
(0.302077 0.0817994 -1.15615e-17)
(1.27308 0.291455 -5.43394e-17)
(1.27527 0.308787 3.89247e-17)
(1.26988 0.32419 0)
(1.25294 0.335289 0)
(1.21813 0.338156 4.98921e-17)
(1.15608 0.327682 -2.75201e-17)
(1.05355 0.297734 -3.06702e-17)
(0.892591 0.241747 -6.92289e-17)
(0.649206 0.154749 3.96736e-17)
(0.287028 0.0567515 -5.19535e-17)
(1.29326 0.269835 5.41367e-17)
(1.29396 0.283309 -5.53236e-22)
(1.28549 0.293979 -2.09231e-17)
(1.26362 0.299334 0)
(1.22183 0.295829 -2.48466e-17)
(1.15094 0.279145 -1.37025e-17)
(1.03862 0.244693 3.81767e-17)
(0.868999 0.188489 8.61554e-18)
(0.62184 0.109243 -4.44286e-17)
(0.268555 0.0343062 5.17046e-17)
(1.03816 0.265058 -4.1854e-16)
(1.06687 0.281044 1.03529e-16)
(1.09616 0.293575 0)
(1.12635 0.301866 1.02405e-16)
(1.15707 0.305671 -3.16914e-23)
(1.1874 0.304807 -1.56567e-18)
(1.21646 0.299244 7.78858e-19)
(1.24337 0.289141 -5.00259e-17)
(1.26729 0.274827 4.98681e-17)
(1.28746 0.256875 -2.46867e-17)
(1.04729 0.25211 2.08725e-16)
(1.07381 0.265472 0)
(1.10073 0.276107 0)
(1.12842 0.283246 1.00665e-16)
(1.15677 0.286604 1.57388e-18)
(1.18493 0.286015 -7.82101e-19)
(1.21215 0.281433 7.78167e-19)
(1.23767 0.272961 4.88265e-17)
(1.2608 0.26084 -4.94487e-17)
(1.28068 0.245592 2.46717e-17)
(1.05619 0.24121 0)
(1.08019 0.252334 -1.03163e-16)
(1.10468 0.261009 1.02228e-16)
(1.12991 0.266807 -1.0142e-16)
(1.15587 0.269455 0)
(1.18184 0.268803 -7.82405e-19)
(1.20715 0.264802 -9.88901e-17)
(1.23115 0.257521 0)
(1.25331 0.24714 0)
(1.27271 0.234123 -2.46994e-17)
(1.06415 0.230779 0)
(1.08603 0.239909 1.09383e-21)
(1.10828 0.246883 -1.02145e-16)
(1.13118 0.251482 1.01382e-16)
(1.15483 0.253463 7.86944e-19)
(1.1786 0.252693 -1.00964e-16)
(1.20195 0.249125 -2.76849e-22)
(1.22436 0.242801 0)
(1.24538 0.233855 0)
(1.26411 0.222684 0)
(1.07081 0.220674 -1.03769e-16)
(1.0909 0.228179 2.0578e-16)
(1.11122 0.233754 7.97337e-19)
(1.13206 0.237323 -1.02136e-16)
(1.15358 0.238696 -7.86954e-19)
(1.1753 0.237767 -1.00216e-16)
(1.19677 0.234498 1.50467e-16)
(1.21757 0.228919 -3.88487e-19)
(1.23736 0.22113 -4.92119e-17)
(1.25528 0.21147 -2.47556e-17)
(1.07623 0.210848 2.07148e-16)
(1.09475 0.217073 -1.02754e-16)
(1.11338 0.221535 1.01977e-16)
(1.13242 0.224259 1.00514e-16)
(1.15207 0.225107 1.02306e-16)
(1.17193 0.224007 9.94671e-17)
(1.19166 0.22094 -4.99267e-17)
(1.21092 0.21593 -3.88814e-19)
(1.22946 0.209059 3.876e-19)
(1.24647 0.200622 2.47834e-17)
(1.08054 0.201289 -1.03783e-16)
(1.09764 0.206486 -1.02216e-16)
(1.11479 0.210072 -1.01894e-16)
(1.13227 0.212122 -1.01268e-16)
(1.15027 0.212546 -9.99468e-17)
(1.16848 0.211299 9.87176e-17)
(1.18663 0.20838 -4.9177e-17)
(1.20446 0.203814 0)
(1.22179 0.197677 9.93995e-17)
(1.23786 0.190229 0)
(1.08386 0.192008 0)
(1.09967 0.196366 1.02482e-16)
(1.11551 0.199258 -1.0181e-16)
(1.13162 0.200781 7.9085e-19)
(1.14819 0.200876 -1.02309e-16)
(1.16494 0.19952 -1.00319e-16)
(1.18168 0.196725 5.07694e-17)
(1.1982 0.192521 -4.98526e-17)
(1.21437 0.18698 -9.95001e-17)
(1.2295 0.180337 0)
(1.08631 0.183021 -1.02991e-16)
(1.10096 0.186689 0)
(1.11563 0.189029 1.01727e-16)
(1.13054 0.190143 1.01982e-16)
(1.14583 0.189991 1.03648e-22)
(1.16131 0.188565 9.95689e-17)
(1.1768 0.185886 0)
(1.19213 0.181987 4.98943e-17)
(1.20723 0.17694 4.99949e-17)
(1.22146 0.170962 -2.50623e-17)
(1.088 0.174338 1.02798e-16)
(1.1016 0.177437 -1.02211e-16)
(1.11522 0.179336 1.01643e-16)
(1.12906 0.180133 -1.00364e-16)
(1.14325 0.179801 1.999e-16)
(1.1576 0.178341 -9.88185e-17)
(1.17197 0.175777 -7.8204e-19)
(1.18623 0.172147 -3.90125e-19)
(1.20035 0.167519 -4.94616e-17)
(1.21373 0.162098 2.48961e-17)
(1.08904 0.165968 0)
(1.10169 0.168596 1.02077e-16)
(1.11436 0.170141 -1.0156e-16)
(1.12726 0.170694 -7.8996e-19)
(1.14045 0.170235 -9.91637e-17)
(1.15381 0.168769 -7.84547e-19)
(1.16719 0.166323 -7.82509e-19)
(1.18051 0.162935 7.80919e-19)
(1.19372 0.158671 4.99014e-17)
(1.20631 0.153725 2.49244e-17)
(1.08952 0.157914 1.02813e-16)
(1.10131 0.160151 -3.98214e-19)
(1.11314 0.161412 0)
(1.12518 0.161776 0)
(1.1375 0.161231 7.87014e-19)
(1.14996 0.159782 -5.17973e-17)
(1.16247 0.157457 1.22883e-23)
(1.17493 0.154292 5.04113e-17)
(1.18733 0.150352 3.90254e-19)
(1.19918 0.145818 -2.49527e-17)
(1.08953 0.150174 -1.02223e-16)
(1.10054 0.152086 -1.01807e-16)
(1.1116 0.153119 -1.01394e-16)
(1.12288 0.15334 -7.89365e-19)
(1.13442 0.152739 1.21514e-23)
(1.14609 0.151325 5.02447e-17)
(1.15781 0.149123 7.83487e-19)
(1.1695 0.146166 9.82186e-23)
(1.18117 0.142517 0)
(1.19234 0.138346 0)
(1.08914 0.142744 -1.0243e-16)
(1.09945 0.144388 2.03744e-16)
(1.10982 0.145237 1.01311e-16)
(1.12042 0.145349 0)
(1.13124 0.144717 -9.99532e-17)
(1.1422 0.14335 4.94764e-17)
(1.15322 0.14127 0)
(1.16422 0.138508 -5.04961e-17)
(1.17521 0.135125 -2.46358e-17)
(1.18578 0.131278 0)
(1.08842 0.135619 1.0224e-16)
(1.09809 0.137039 -1.01937e-16)
(1.10785 0.137741 0)
(1.11782 0.137772 1.00174e-16)
(1.12801 0.137127 1.00741e-16)
(1.13833 0.135815 -1.00557e-16)
(1.14871 0.133856 -4.94202e-17)
(1.15909 0.131279 0)
(1.16947 0.128139 2.50522e-17)
(1.17947 0.124586 0)
(1.08743 0.12879 1.01652e-16)
(1.09653 0.130025 0)
(1.10572 0.130609 0)
(1.11513 0.130581 -1.00137e-16)
(1.12475 0.129937 -1.01785e-23)
(1.13449 0.128685 4.8724e-17)
(1.14429 0.126844 5.10205e-17)
(1.1541 0.124441 -3.92101e-19)
(1.16393 0.121527 1.95923e-19)
(1.17341 0.118241 1.95833e-19)
(1.08622 0.122248 -2.02928e-16)
(1.0948 0.12333 1.01273e-16)
(1.10348 0.123819 7.89546e-19)
(1.11238 0.123749 -7.88183e-19)
(1.12148 0.123116 -5.03711e-17)
(1.13069 0.121928 0)
(1.13997 0.120203 0)
(1.14927 0.117964 5.02315e-17)
(1.15859 0.115258 0)
(1.16759 0.112218 0)
(1.08484 0.115983 1.01671e-16)
(1.09295 0.116937 -1.01536e-16)
(1.10117 0.117352 7.889e-19)
(1.1096 0.117253 -1.02424e-16)
(1.11822 0.116639 5.11585e-17)
(1.12696 0.115517 0)
(1.13577 0.113902 -7.85896e-19)
(1.14459 0.111818 -4.98811e-17)
(1.15344 0.109307 1.96322e-19)
(1.16201 0.106492 1.96281e-19)
(1.08332 0.109984 -1.01483e-16)
(1.091 0.110833 3.94565e-19)
(1.09881 0.111189 -1.00897e-16)
(1.10682 0.111072 1.0081e-16)
(1.115 0.110482 7.87054e-19)
(1.12331 0.109426 -7.86671e-19)
(1.13168 0.107918 4.95422e-17)
(1.14007 0.105978 7.86196e-19)
(1.1485 0.103649 0)
(1.15666 0.101042 0)
(1.0817 0.104241 -3.93875e-19)
(1.089 0.105002 1.0127e-16)
(1.09642 0.105311 1.00815e-16)
(1.10405 0.105185 -1.01559e-16)
(1.11184 0.104622 5.1159e-17)
(1.11974 0.103632 0)
(1.12771 0.102225 -5.03596e-17)
(1.13571 0.100423 -3.93426e-19)
(1.14374 0.0982616 3.9344e-19)
(1.15154 0.0958476 0)
(1.08001 0.0987408 3.9366e-19)
(1.08696 0.0994289 -1.01137e-16)
(1.09403 0.0997019 -1.00732e-16)
(1.10131 0.0995724 1.00734e-16)
(1.10874 0.0990408 -1.00744e-16)
(1.11628 0.0981141 0)
(1.12388 0.0968048 0)
(1.13152 0.0951303 -3.93758e-19)
(1.13918 0.0931266 -2.50088e-17)
(1.14663 0.0908916 2.54071e-17)
(1.07827 0.0934731 1.00136e-16)
(1.0849 0.0941005 -1.00219e-16)
(1.09166 0.0943454 1.0065e-16)
(1.09861 0.0942177 -5.11342e-17)
(1.10571 0.0937182 7.87093e-19)
(1.11292 0.092854 0)
(1.12019 0.0916367 -5.04218e-17)
(1.12749 0.0900827 -3.94091e-19)
(1.13482 0.0882257 2.56257e-17)
(1.14195 0.086157 -2.5239e-17)
(1.07651 0.0884266 0)
(1.08285 0.0890031 1.0048e-16)
(1.08932 0.0892264 -1.00567e-16)
(1.09598 0.089104 5.11147e-17)
(1.10278 0.0886374 4.95854e-17)
(1.10967 0.0878335 0)
(1.11663 0.0867034 4.96645e-17)
(1.12363 0.0852624 3.94432e-19)
(1.13065 0.0835423 1.97325e-19)
(1.13748 0.0816282 1.97407e-19)
(1.07475 0.0835898 3.91242e-19)
(1.08082 0.0841235 -3.91989e-19)
(1.08703 0.0843303 1.00485e-16)
(1.09341 0.0842159 7.86076e-19)
(1.09993 0.0837823 -5.03726e-17)
(1.10654 0.0830364 4.96434e-17)
(1.11322 0.0819886 -4.96952e-17)
(1.11993 0.0806537 2.40804e-17)
(1.12666 0.0790614 5.92574e-19)
(1.13323 0.0772912 -1.97633e-19)
(1.073 0.0789519 9.95835e-17)
(1.07883 0.0794492 3.91477e-19)
(1.08479 0.0796435 0)
(1.09093 0.079539 0)
(1.09719 0.0791379 1.91815e-23)
(1.10354 0.0784474 -5.04483e-17)
(1.10995 0.0774774 1.00241e-16)
(1.1164 0.0762419 3.95113e-19)
(1.12286 0.074769 1.97729e-19)
(1.12918 0.0731328 1.28609e-17)
(1.07127 0.0745021 -9.94006e-17)
(1.07688 0.0749683 -3.90966e-19)
(1.08262 0.075153 -5.01601e-17)
(1.08852 0.0750594 0)
(1.09455 0.0746902 5.03728e-17)
(1.10066 0.0740524 0)
(1.10683 0.0731557 -4.97565e-17)
(1.11303 0.0720133 -2.64937e-17)
(1.11925 0.0706519 3.9586e-19)
(1.12533 0.0691406 1.32543e-23)
(1.06957 0.0702299 -9.99961e-17)
(1.07498 0.070669 3.90456e-19)
(1.08052 0.0708464 5.01191e-17)
(1.08621 0.0707643 -7.85173e-19)
(1.09202 0.070426 7.87078e-19)
(1.09791 0.0698382 0)
(1.10386 0.0690104 -7.90269e-19)
(1.10983 0.0679554 3.95768e-19)
(1.11582 0.0666981 1.98134e-19)
(1.12168 0.0653033 -1.24938e-17)
(1.06792 0.0661251 9.90361e-17)
(1.07315 0.0665404 3.89947e-19)
(1.07849 0.066712 -7.82466e-19)
(1.08399 0.0666417 1.56975e-18)
(1.0896 0.0663328 -7.87078e-19)
(1.09528 0.0657924 0)
(1.10102 0.0650294 -2.53043e-17)
(1.10679 0.0640561 0)
(1.11257 0.0628962 0)
(1.11823 0.0616101 1.27068e-17)
(1.06633 0.0621777 4.96211e-17)
(1.07138 0.0625717 0)
(1.07655 0.0627386 0)
(1.08187 0.0626798 -7.84569e-19)
(1.08729 0.0623991 -4.95857e-17)
(1.09279 0.0619033 0)
(1.09834 0.0612011 2.61112e-17)
(1.10391 0.0603044 -1.18931e-18)
(1.10949 0.0592356 3.9708e-19)
(1.11497 0.0580509 -1.27215e-17)
(1.06479 0.0583784 -9.94475e-17)
(1.06968 0.0587528 3.88931e-19)
(1.0747 0.0589156 7.81184e-19)
(1.07985 0.058868 -5.17617e-17)
(1.0851 0.0586138 1.0232e-16)
(1.09042 0.05816 -7.89575e-19)
(1.09579 0.0575149 2.53355e-17)
(1.10118 0.0566899 -3.9677e-19)
(1.10659 0.0557062 1.98745e-19)
(1.11189 0.0546163 1.99003e-19)
(1.06331 0.0547176 4.90535e-17)
(1.06806 0.0550739 3.88425e-19)
(1.07293 0.0552329 0)
(1.07793 0.0551958 4.93899e-17)
(1.08302 0.0549666 -4.95856e-17)
(1.08818 0.0545521 2.52747e-17)
(1.09339 0.0539606 2.56264e-24)
(1.09862 0.0532028 -3.97107e-19)
(1.10385 0.0522987 3.97897e-19)
(1.10899 0.0512974 0)
(1.0619 0.0511866 -3.85541e-19)
(1.06652 0.0515256 3.8792e-19)
(1.07125 0.0516809 0)
(1.07611 0.0516535 -5.01544e-17)
(1.08106 0.0514476 7.87068e-19)
(1.08607 0.05107 -5.13563e-17)
(1.09113 0.0505286 -2.53668e-17)
(1.0962 0.0498337 -2.5834e-17)
(1.10128 0.0490042 1.99155e-19)
(1.10627 0.0480857 1.99464e-19)
(1.06056 0.0477767 -4.96441e-17)
(1.06506 0.048099 4.99764e-17)
(1.06967 0.0482503 0)
(1.0744 0.0482317 5.09184e-17)
(1.07921 0.0480476 -7.87072e-19)
(1.08409 0.0477045 2.52915e-17)
(1.089 0.04721 0)
(1.09393 0.046574 2.50604e-17)
(1.09887 0.0458144 5.98074e-19)
(1.10372 0.0449734 -1.99695e-19)
(1.05929 0.0444794 4.87854e-17)
(1.06368 0.0447854 3.86874e-19)
(1.06817 0.0449324 7.78625e-19)
(1.07278 0.0449217 -7.83058e-19)
(1.07747 0.0447577 0)
(1.08222 0.0444467 2.52999e-17)
(1.08701 0.0439961 -2.61918e-17)
(1.09181 0.0434155 2.58779e-17)
(1.09662 0.0427213 1.99565e-19)
(1.10134 0.0419529 1.29952e-17)
(1.0581 0.0412869 -4.908e-17)
(1.06238 0.0415765 -4.94603e-17)
(1.06677 0.0417188 0)
(1.07127 0.041715 0)
(1.07585 0.0415695 0)
(1.08049 0.0412885 -5.06166e-17)
(1.08515 0.040879 7.94178e-19)
(1.08984 0.0403502 -2.66969e-17)
(1.09452 0.0397174 3.9954e-19)
(1.09913 0.0390172 -1.28101e-17)
(1.05698 0.0381912 -3.82699e-19)
(1.06117 0.0384645 3.85908e-19)
(1.06546 0.0386015 -7.77348e-19)
(1.06986 0.0386035 7.8245e-19)
(1.07434 0.038475 7.87058e-19)
(1.07887 0.0382219 -7.91147e-19)
(1.08343 0.037851 2.46348e-17)
(1.088 0.0373707 3.98803e-19)
(1.09257 0.0367957 3.99953e-19)
(1.09707 0.0361595 0)
(1.05594 0.0351849 4.85196e-17)
(1.06004 0.0354416 3.85407e-19)
(1.06425 0.0355727 2.48548e-17)
(1.06856 0.0355796 7.82141e-19)
(1.07294 0.0354666 -4.61866e-24)
(1.07737 0.0352395 -7.91409e-19)
(1.08183 0.0349046 0)
(1.0863 0.0344701 0)
(1.09077 0.0339494 1.28117e-17)
(1.09517 0.0333733 0)
(1.05497 0.0322607 3.8135e-19)
(1.059 0.0325006 -3.84907e-19)
(1.06313 0.0326251 -2.56105e-17)
(1.06735 0.0326359 4.44099e-24)
(1.07165 0.032537 7.87054e-19)
(1.07599 0.032334 2.53335e-17)
(1.08036 0.0320331 2.54609e-17)
(1.08474 0.0316416 -3.99479e-19)
(1.08911 0.031172 -1.24242e-17)
(1.09342 0.0306525 0)
(1.05408 0.0294116 -3.80658e-19)
(1.05804 0.0296343 3.84409e-19)
(1.0621 0.0297516 -2.4814e-17)
(1.06624 0.0297652 0)
(1.07046 0.0296792 0)
(1.07472 0.0294988 0)
(1.07901 0.0292296 -2.54766e-17)
(1.0833 0.0288787 -1.31941e-17)
(1.08759 0.0284573 4.01197e-19)
(1.09182 0.0279913 0)
(1.05326 0.0266308 -3.79968e-19)
(1.05716 0.0268359 3.83911e-19)
(1.06115 0.0269454 2.40188e-17)
(1.06524 0.026961 4.27329e-24)
(1.06938 0.0268866 7.87045e-19)
(1.07357 0.0267272 0)
(1.07778 0.0264879 7.96633e-19)
(1.082 0.0261752 1.16047e-17)
(1.08621 0.0257996 -1.245e-17)
(1.09036 0.0253841 0)
(1.05253 0.0239118 0)
(1.05637 0.0240988 2.45384e-17)
(1.0603 0.0241998 2.47733e-17)
(1.06432 0.0242165 -7.80919e-19)
(1.06841 0.0241527 7.87039e-19)
(1.07253 0.0240128 0)
(1.07668 0.0238018 1.35512e-17)
(1.08083 0.0235254 -1.20151e-18)
(1.08496 0.0231931 1.30659e-17)
(1.08905 0.0228255 2.01562e-19)
(1.05186 0.0212481 -3.78595e-19)
(1.05566 0.0214165 -2.41238e-17)
(1.05954 0.0215085 -2.39794e-17)
(1.06351 0.0215256 -4.13868e-24)
(1.06753 0.0214713 -7.87033e-19)
(1.0716 0.0213498 0)
(1.07569 0.0211654 -1.35595e-17)
(1.07977 0.0209235 4.00849e-19)
(1.08385 0.0206323 6.0367e-19)
(1.08788 0.0203104 -2.01798e-19)
(1.05128 0.0186335 3.77911e-19)
(1.05503 0.018783 -3.82423e-19)
(1.05887 0.0188653 0)
(1.06279 0.018882 0)
(1.06676 0.0188364 0)
(1.07078 0.0187321 -1.26876e-17)
(1.07481 0.0185731 -1.27698e-17)
(1.07885 0.018364 -4.01187e-19)
(1.08287 0.0181121 2.01434e-19)
(1.08684 0.0178336 2.02034e-19)
(1.05077 0.0160619 -3.77229e-19)
(1.05448 0.016192 3.81929e-19)
(1.05828 0.0162642 1.31284e-17)
(1.06216 0.01628 -1.326e-17)
(1.0661 0.0162422 0)
(1.07006 0.0161542 2.53836e-17)
(1.07405 0.0160193 1.27777e-17)
(1.07804 0.0158416 6.02297e-18)
(1.08201 0.0156274 -6.2509e-18)
(1.08594 0.0153904 2.02271e-19)
(1.05033 0.0135274 -1.24261e-17)
(1.05402 0.0136377 1.25874e-17)
(1.05779 0.0136993 -1.2346e-17)
(1.06163 0.0137136 2.41706e-17)
(1.06553 0.0136831 7.87012e-19)
(1.06946 0.0136105 -2.5392e-17)
(1.0734 0.0134987 6.39278e-18)
(1.07735 0.0133511 -6.83188e-18)
(1.08128 0.013173 6.86297e-18)
(1.08517 0.012976 0)
(1.04997 0.0110242 1.24038e-17)
(1.05363 0.0111144 -3.80946e-19)
(1.05737 0.0111651 -7.70988e-19)
(1.06119 0.0111775 -1.16908e-17)
(1.06505 0.0111536 0)
(1.06895 0.0110957 1.27002e-17)
(1.07287 0.0110061 -7.19632e-18)
(1.07678 0.0108875 -5.22885e-18)
(1.08067 0.0107442 -6.06188e-19)
(1.08453 0.0105856 2.02747e-19)
(1.04968 0.00854664 -1.20062e-17)
(1.05332 0.00861648 -1.91053e-24)
(1.05705 0.00865603 7.70354e-19)
(1.06084 0.00866619 -1.55816e-18)
(1.06468 0.00864846 1.57399e-18)
(1.06855 0.00860457 -7.14618e-18)
(1.07244 0.00853628 5.6006e-18)
(1.07632 0.00844566 3.62308e-18)
(1.08019 0.00833602 3.84319e-18)
(1.08401 0.00821458 -2.02985e-19)
(1.04947 0.00608897 1.16101e-17)
(1.05309 0.00613826 -1.17788e-17)
(1.0568 0.00616641 0)
(1.06058 0.00617398 0)
(1.0644 0.00616196 7.86984e-19)
(1.06825 0.00613152 5.55996e-18)
(1.07212 0.00608385 -6.40464e-18)
(1.07598 0.0060204 2.82037e-18)
(1.07982 0.0059435 -3.03727e-18)
(1.08363 0.0058582 2.03224e-19)
(1.04932 0.00364556 3.73847e-19)
(1.05294 0.00367399 -3.79472e-19)
(1.05664 0.00369038 3.07636e-18)
(1.0604 0.00369492 -7.78463e-19)
(1.06421 0.0036881 3.14791e-18)
(1.06805 0.00367055 -2.38362e-18)
(1.07191 0.00364293 0)
(1.07575 0.00360605 -4.03254e-19)
(1.07958 0.00356125 4.05394e-19)
(1.08337 0.00351147 -8.13852e-19)
(1.04925 0.00121238 -3.74206e-19)
(1.05287 0.00122077 3.80062e-19)
(1.05656 0.00122564 -3.85354e-18)
(1.06032 0.00122697 7.80497e-19)
(1.06412 0.00122485 -1.57878e-18)
(1.06795 0.00121944 1.59459e-18)
(1.0718 0.00121091 0)
(1.07564 0.00119949 -4.04909e-19)
(1.07946 0.00118557 2.03576e-19)
(1.08325 0.00117007 1.02188e-18)
(1.19453 0.0140769 0)
(1.02703 0.0141344 0)
(0.99254 0.0216012 0)
(1.00636 0.0322604 0)
(1.00971 0.0408867 0)
(1.00761 0.0491123 0)
(1.00602 0.0579737 0)
(1.00489 0.0673904 0)
(1.0037 0.0773266 0)
(1.00247 0.087899 0)
(1.00133 0.0992293 0)
(1.00036 0.111424 0)
(0.99969 0.12459 0)
(0.999441 0.138837 0)
(0.999786 0.154269 0)
(1.00093 0.170967 0)
(1.00314 0.188966 0)
(1.00676 0.208192 0)
(1.01231 0.228312 0)
(1.01952 0.248024 0)
(1.19854 0.011148 0)
(1.02377 0.0155497 0)
(0.993143 0.0229875 0)
(1.00791 0.0326901 0)
(1.01063 0.0413467 0)
(1.00869 0.049795 0)
(1.0076 0.0587314 0)
(1.00695 0.0681495 0)
(1.00625 0.0780513 0)
(1.00559 0.0885363 0)
(1.0051 0.0997068 0)
(1.00486 0.111653 0)
(1.005 0.124464 0)
(1.00564 0.138225 0)
(1.00696 0.15301 0)
(1.00918 0.168865 0)
(1.01253 0.185776 0)
(1.01739 0.203577 0)
(1.02412 0.22171 0)
(1.03198 0.238633 0)
(1.20206 0.0090582 0)
(1.02241 0.0166423 0)
(0.993042 0.0240471 0)
(1.00863 0.0329047 0)
(1.01134 0.0415621 0)
(1.00965 0.0501829 0)
(1.009 0.059147 0)
(1.00879 0.0685191 0)
(1.00857 0.0783377 0)
(1.00846 0.0886837 0)
(1.00856 0.0996401 0)
(1.00899 0.111282 0)
(1.00984 0.123678 0)
(1.01127 0.136892 0)
(1.01342 0.150969 0)
(1.0165 0.165924 0)
(1.02074 0.181701 0)
(1.02642 0.19809 0)
(1.03387 0.214487 0)
(1.0424 0.229452 0)
(1.20541 0.00814873 0)
(1.02195 0.0168889 0)
(0.992793 0.0244127 0)
(1.00907 0.0329584 0)
(1.01196 0.0416232 0)
(1.01053 0.050317 0)
(1.01025 0.0592702 0)
(1.01046 0.0685747 0)
(1.01069 0.0782819 0)
(1.01107 0.088459 0)
(1.01173 0.0991737 0)
(1.01275 0.110487 0)
(1.01424 0.122452 0)
(1.01633 0.135113 0)
(1.01918 0.148493 0)
(1.02297 0.162582 0)
(1.02788 0.177301 0)
(1.03417 0.192432 0)
(1.04208 0.207401 0)
(1.05108 0.22084 0)
(1.20869 0.00773372 0)
(1.02189 0.0168271 0)
(0.992595 0.0244511 0)
(1.00943 0.0328678 0)
(1.01254 0.0414984 0)
(1.01133 0.0501867 0)
(1.01138 0.059088 0)
(1.01196 0.0682931 0)
(1.0126 0.0778539 0)
(1.01344 0.0878265 0)
(1.01458 0.0982663 0)
(1.01613 0.109222 0)
(1.01817 0.120733 0)
(1.02084 0.132825 0)
(1.02427 0.145507 0)
(1.02862 0.158751 0)
(1.03406 0.172468 0)
(1.04078 0.186438 0)
(1.04899 0.200129 0)
(1.05827 0.212244 0)