/*--------------------------------*- C++ -*----------------------------------*\
  =========                 |
  \\      /  F ield         | OpenFOAM: The Open Source CFD Toolbox
   \\    /   O peration     | Website:  https://openfoam.org
    \\  /    A nd           | Version:  6
     \\/     M anipulation  |
\*---------------------------------------------------------------------------*/
FoamFile
{
    version     2.0;
    format      ascii;
    class       volScalarField;
    location    "0.9";
    object      p;
}
// * * * * * * * * * * * * * * * * * * * * * * * * * * * * * * * * * * * * * //

dimensions      [0 2 -2 0 0 0 0];

internalField   nonuniform List<scalar> 
5600
(
996.292
997.247
998.035
998.056
997.97
997.959
997.972
997.98
997.986
997.992
997.999
998.007
998.016
998.026
998.036
998.048
998.061
998.075
998.091
998.109
996.247
997.266
998.049
998.055
997.968
997.958
997.972
997.98
997.985
997.991
997.998
998.006
998.015
998.025
998.035
998.047
998.06
998.074
998.09
998.107
996.221
997.271
998.055
998.054
997.966
997.957
997.97
997.978
997.983
997.989
997.996
998.003
998.012
998.021
998.031
998.043
998.055
998.069
998.083
998.099
996.193
997.271
998.059
998.053
997.964
997.955
997.968
997.975
997.98
997.985
997.991
997.998
998.006
998.015
998.024
998.035
998.046
998.058
998.072
998.086
996.158
997.271
998.064
998.051
997.96
997.951
997.964
997.971
997.975
997.979
997.985
997.991
997.998
998.006
998.015
998.024
998.033
998.044
998.055
998.066
996.118
997.271
998.068
998.049
997.955
997.946
997.959
997.965
997.968
997.972
997.977
997.983
997.989
997.995
998.002
998.01
998.017
998.026
998.034
998.042
996.075
997.271
998.073
998.045
997.95
997.941
997.953
997.958
997.96
997.963
997.967
997.972
997.977
997.982
997.987
997.993
997.998
998.004
998.009
998.013
996.028
997.275
998.08
998.041
997.942
997.934
997.946
997.95
997.951
997.953
997.956
997.96
997.963
997.967
997.97
997.974
997.977
997.98
997.981
997.982
995.973
997.283
998.088
998.034
997.933
997.926
997.937
997.94
997.941
997.942
997.944
997.946
997.949
997.951
997.953
997.954
997.954
997.954
997.952
997.948
995.865
997.32
998.102
998.017
997.921
997.918
997.928
997.93
997.929
997.93
997.931
997.932
997.933
997.934
997.934
997.933
997.931
997.928
997.923
997.914
998.132
998.162
998.196
998.236
998.281
998.332
998.391
998.455
998.525
998.695
998.129
998.158
998.191
998.23
998.274
998.323
998.38
998.441
998.508
998.677
998.119
998.146
998.179
998.216
998.257
998.304
998.357
998.414
998.475
998.64
998.102
998.127
998.157
998.192
998.23
998.273
998.321
998.372
998.428
998.583
998.078
998.1
998.128
998.159
998.193
998.231
998.273
998.317
998.365
998.509
998.048
998.066
998.091
998.119
998.148
998.18
998.215
998.251
998.289
998.42
998.013
998.028
998.05
998.073
998.097
998.122
998.149
998.175
998.204
998.317
997.975
997.986
998.004
998.023
998.041
998.059
998.077
998.094
998.112
998.205
997.934
997.941
997.957
997.97
997.982
997.994
998.004
998.012
998.018
998.088
997.892
997.898
997.909
997.917
997.923
997.927
997.928
997.925
997.918
997.964
997.856
997.864
997.869
997.87
997.867
997.858
997.841
997.816
997.788
997.822
997.817
997.821
997.82
997.814
997.804
997.786
997.758
997.721
997.683
997.696
997.776
997.775
997.767
997.756
997.738
997.712
997.677
997.632
997.586
997.577
997.732
997.726
997.713
997.696
997.672
997.639
997.596
997.544
997.492
997.463
997.687
997.676
997.659
997.636
997.606
997.566
997.517
997.461
997.404
997.357
997.641
997.627
997.605
997.577
997.542
997.498
997.444
997.383
997.323
997.26
997.597
997.578
997.553
997.522
997.483
997.435
997.378
997.315
997.252
997.176
997.555
997.533
997.505
997.47
997.429
997.378
997.32
997.256
997.192
997.104
997.516
997.491
997.461
997.425
997.381
997.33
997.272
997.208
997.144
997.045
997.481
997.454
997.422
997.385
997.341
997.29
997.232
997.168
997.104
996.996
997.852
997.812
997.771
997.729
997.687
997.645
997.604
997.566
997.53
997.498
997.839
997.8
997.762
997.723
997.684
997.646
997.609
997.574
997.541
997.511
997.823
997.786
997.75
997.715
997.68
997.645
997.612
997.58
997.55
997.523
997.808
997.774
997.741
997.709
997.677
997.645
997.614
997.585
997.558
997.532
997.795
997.764
997.733
997.704
997.674
997.645
997.617
997.59
997.565
997.541
997.784
997.754
997.726
997.699
997.672
997.645
997.619
997.595
997.571
997.549
997.773
997.746
997.72
997.695
997.67
997.645
997.621
997.599
997.577
997.556
997.764
997.739
997.715
997.691
997.668
997.645
997.623
997.602
997.582
997.562
997.755
997.732
997.71
997.688
997.667
997.645
997.625
997.605
997.586
997.568
997.748
997.726
997.705
997.685
997.665
997.646
997.626
997.608
997.59
997.573
997.741
997.721
997.702
997.683
997.664
997.646
997.628
997.61
997.594
997.577
997.735
997.716
997.698
997.681
997.663
997.646
997.629
997.613
997.597
997.581
997.729
997.712
997.695
997.678
997.662
997.646
997.63
997.615
997.6
997.585
997.724
997.708
997.692
997.677
997.661
997.646
997.631
997.617
997.602
997.588
997.72
997.704
997.69
997.675
997.66
997.646
997.632
997.618
997.605
997.592
997.716
997.701
997.687
997.673
997.66
997.646
997.633
997.62
997.607
997.594
997.712
997.698
997.685
997.672
997.659
997.646
997.633
997.621
997.609
997.597
997.708
997.695
997.683
997.671
997.658
997.646
997.634
997.622
997.611
997.599
997.705
997.693
997.681
997.669
997.658
997.646
997.635
997.623
997.612
997.601
997.702
997.691
997.679
997.668
997.657
997.646
997.635
997.624
997.614
997.603
997.699
997.688
997.678
997.667
997.656
997.646
997.635
997.625
997.615
997.605
997.697
997.686
997.676
997.666
997.656
997.646
997.636
997.626
997.616
997.606
997.694
997.684
997.675
997.665
997.655
997.646
997.636
997.627
997.617
997.608
997.692
997.683
997.674
997.664
997.655
997.646
997.636
997.627
997.618
997.609
997.69
997.681
997.672
997.663
997.654
997.646
997.637
997.628
997.619
997.61
997.688
997.68
997.671
997.663
997.654
997.645
997.637
997.628
997.62
997.612
997.686
997.678
997.67
997.662
997.654
997.645
997.637
997.629
997.621
997.613
997.685
997.677
997.669
997.661
997.653
997.645
997.637
997.629
997.621
997.613
997.683
997.676
997.668
997.66
997.653
997.645
997.637
997.63
997.622
997.614
997.682
997.674
997.667
997.66
997.652
997.645
997.637
997.63
997.623
997.615
997.68
997.673
997.666
997.659
997.652
997.645
997.637
997.63
997.623
997.616
997.679
997.672
997.666
997.659
997.652
997.645
997.638
997.63
997.623
997.616
997.678
997.671
997.665
997.658
997.651
997.644
997.638
997.631
997.624
997.617
997.677
997.671
997.664
997.658
997.651
997.644
997.638
997.631
997.624
997.618
997.676
997.67
997.663
997.657
997.651
997.644
997.638
997.631
997.625
997.618
997.675
997.669
997.663
997.657
997.65
997.644
997.638
997.631
997.625
997.618
997.674
997.668
997.662
997.656
997.65
997.644
997.638
997.631
997.625
997.619
997.673
997.668
997.662
997.656
997.65
997.644
997.638
997.632
997.625
997.619
997.673
997.667
997.661
997.656
997.65
997.644
997.638
997.632
997.626
997.619
997.672
997.666
997.661
997.655
997.649
997.644
997.638
997.632
997.626
997.62
997.671
997.666
997.661
997.655
997.649
997.643
997.638
997.632
997.626
997.62
997.671
997.666
997.66
997.655
997.649
997.643
997.638
997.632
997.626
997.62
997.67
997.665
997.66
997.654
997.649
997.643
997.638
997.632
997.626
997.62
997.67
997.665
997.66
997.654
997.649
997.643
997.638
997.632
997.626
997.621
997.67
997.665
997.659
997.654
997.649
997.643
997.638
997.632
997.626
997.621
997.669
997.664
997.659
997.654
997.649
997.643
997.638
997.632
997.626
997.621
997.669
997.664
997.659
997.654
997.648
997.643
997.638
997.632
997.626
997.621
997.669
997.664
997.659
997.654
997.648
997.643
997.638
997.632
997.626
997.621
997.669
997.664
997.659
997.654
997.648
997.643
997.637
997.632
997.627
997.621
997.669
997.664
997.659
997.654
997.648
997.643
997.637
997.632
997.627
997.621
995.641
997.435
998.134
997.985
997.903
997.911
997.918
997.917
997.916
997.916
997.915
997.915
997.914
997.912
997.91
997.906
997.901
997.894
997.883
997.866
995.54
997.473
998.134
997.964
997.893
997.905
997.91
997.908
997.907
997.906
997.905
997.903
997.902
997.899
997.895
997.891
997.884
997.876
997.864
997.848
995.498
997.472
998.125
997.951
997.884
997.897
997.902
997.9
997.898
997.896
997.895
997.893
997.89
997.887
997.883
997.877
997.87
997.862
997.85
997.835
995.472
997.464
998.118
997.94
997.875
997.889
997.894
997.891
997.889
997.887
997.885
997.882
997.879
997.875
997.87
997.864
997.857
997.848
997.836
997.822
995.451
997.456
998.111
997.931
997.867
997.881
997.885
997.882
997.88
997.878
997.875
997.872
997.868
997.864
997.859
997.852
997.844
997.835
997.824
997.809
995.432
997.447
998.104
997.923
997.858
997.872
997.877
997.874
997.871
997.868
997.866
997.862
997.858
997.853
997.848
997.841
997.833
997.823
997.812
997.798
995.415
997.439
998.097
997.915
997.85
997.864
997.869
997.865
997.862
997.86
997.856
997.853
997.848
997.843
997.837
997.83
997.822
997.812
997.801
997.788
995.399
997.43
998.09
997.907
997.842
997.856
997.861
997.857
997.854
997.851
997.848
997.844
997.839
997.834
997.827
997.82
997.812
997.802
997.791
997.779
995.383
997.421
998.083
997.9
997.834
997.849
997.853
997.849
997.846
997.843
997.839
997.835
997.83
997.825
997.818
997.811
997.803
997.793
997.783
997.77
995.367
997.413
998.077
997.893
997.827
997.841
997.845
997.841
997.838
997.835
997.831
997.827
997.822
997.816
997.81
997.802
997.794
997.785
997.774
997.763
995.351
997.404
998.071
997.885
997.819
997.834
997.838
997.834
997.83
997.827
997.823
997.819
997.814
997.808
997.801
997.794
997.786
997.777
997.767
997.756
995.336
997.396
998.064
997.879
997.812
997.827
997.831
997.827
997.823
997.819
997.816
997.811
997.806
997.8
997.794
997.787
997.779
997.77
997.76
997.749
995.321
997.388
998.058
997.872
997.805
997.82
997.824
997.82
997.816
997.812
997.808
997.804
997.799
997.793
997.787
997.78
997.772
997.763
997.754
997.743
995.306
997.381
998.053
997.865
997.799
997.813
997.817
997.813
997.809
997.806
997.802
997.797
997.792
997.786
997.78
997.773
997.765
997.757
997.748
997.738
995.292
997.373
998.047
997.859
997.792
997.807
997.811
997.806
997.803
997.799
997.795
997.79
997.785
997.78
997.774
997.767
997.759
997.751
997.742
997.733
995.279
997.366
998.042
997.853
997.786
997.8
997.804
997.8
997.796
997.793
997.789
997.784
997.779
997.774
997.768
997.761
997.754
997.746
997.737
997.728
995.266
997.359
998.036
997.847
997.78
997.794
997.798
997.794
997.79
997.787
997.783
997.778
997.773
997.768
997.762
997.756
997.748
997.741
997.732
997.724
995.253
997.352
998.031
997.842
997.774
997.789
997.793
997.789
997.785
997.781
997.777
997.773
997.768
997.763
997.757
997.75
997.744
997.736
997.728
997.72
995.241
997.346
998.026
997.836
997.769
997.783
997.787
997.783
997.779
997.776
997.772
997.768
997.763
997.758
997.752
997.746
997.739
997.732
997.724
997.716
995.229
997.34
998.022
997.831
997.763
997.778
997.782
997.778
997.774
997.771
997.767
997.763
997.758
997.753
997.747
997.741
997.735
997.728
997.72
997.713
995.218
997.334
998.017
997.826
997.758
997.773
997.777
997.773
997.769
997.766
997.762
997.758
997.753
997.748
997.743
997.737
997.731
997.724
997.717
997.709
995.207
997.328
998.013
997.822
997.753
997.768
997.772
997.768
997.765
997.761
997.758
997.753
997.749
997.744
997.739
997.733
997.727
997.72
997.714
997.706
995.197
997.323
998.009
997.817
997.749
997.764
997.768
997.764
997.76
997.757
997.753
997.749
997.745
997.74
997.735
997.729
997.723
997.717
997.711
997.704
995.187
997.318
998.005
997.813
997.744
997.759
997.764
997.76
997.756
997.753
997.749
997.745
997.741
997.736
997.731
997.726
997.72
997.714
997.708
997.701
995.178
997.313
998.001
997.809
997.74
997.755
997.76
997.755
997.752
997.749
997.745
997.741
997.737
997.733
997.728
997.723
997.717
997.711
997.705
997.699
995.169
997.308
997.998
997.805
997.736
997.751
997.756
997.752
997.748
997.745
997.742
997.738
997.734
997.729
997.725
997.72
997.714
997.708
997.703
997.696
995.161
997.303
997.995
997.801
997.732
997.748
997.752
997.748
997.745
997.742
997.738
997.735
997.731
997.726
997.722
997.717
997.711
997.706
997.7
997.694
995.153
997.299
997.991
997.798
997.729
997.744
997.749
997.745
997.741
997.738
997.735
997.731
997.727
997.723
997.719
997.714
997.709
997.704
997.698
997.692
995.145
997.295
997.988
997.794
997.726
997.741
997.745
997.741
997.738
997.735
997.732
997.728
997.725
997.72
997.716
997.711
997.707
997.701
997.696
997.69
995.138
997.291
997.986
997.791
997.722
997.738
997.742
997.738
997.735
997.732
997.729
997.726
997.722
997.718
997.714
997.709
997.704
997.699
997.694
997.689
995.131
997.288
997.983
997.788
997.719
997.735
997.739
997.735
997.732
997.729
997.726
997.723
997.719
997.715
997.711
997.707
997.702
997.697
997.692
997.687
995.125
997.285
997.98
997.786
997.716
997.732
997.736
997.733
997.729
997.727
997.724
997.721
997.717
997.713
997.709
997.705
997.7
997.696
997.691
997.686
995.119
997.281
997.978
997.783
997.714
997.729
997.734
997.73
997.727
997.724
997.721
997.718
997.715
997.711
997.707
997.703
997.699
997.694
997.689
997.684
995.114
997.278
997.976
997.781
997.711
997.727
997.732
997.728
997.725
997.722
997.719
997.716
997.713
997.709
997.705
997.701
997.697
997.692
997.688
997.683
995.108
997.276
997.974
997.778
997.709
997.725
997.729
997.726
997.723
997.72
997.717
997.714
997.711
997.707
997.703
997.699
997.695
997.691
997.686
997.682
995.104
997.273
997.972
997.776
997.707
997.722
997.727
997.724
997.721
997.718
997.715
997.712
997.709
997.706
997.702
997.698
997.694
997.69
997.685
997.681
995.099
997.271
997.97
997.774
997.705
997.721
997.725
997.722
997.719
997.716
997.714
997.711
997.707
997.704
997.7
997.697
997.693
997.688
997.684
997.68
995.095
997.269
997.968
997.772
997.703
997.719
997.724
997.72
997.717
997.715
997.712
997.709
997.706
997.703
997.699
997.695
997.691
997.687
997.683
997.679
995.091
997.267
997.967
997.771
997.701
997.717
997.722
997.718
997.715
997.713
997.71
997.708
997.704
997.701
997.698
997.694
997.69
997.686
997.682
997.678
995.088
997.265
997.965
997.769
997.7
997.716
997.72
997.717
997.714
997.712
997.709
997.706
997.703
997.7
997.697
997.693
997.689
997.685
997.681
997.677
995.084
997.263
997.964
997.768
997.698
997.714
997.719
997.716
997.713
997.71
997.708
997.705
997.702
997.699
997.696
997.692
997.688
997.684
997.68
997.676
995.081
997.261
997.963
997.767
997.697
997.713
997.718
997.714
997.712
997.709
997.707
997.704
997.701
997.698
997.695
997.691
997.687
997.684
997.68
997.676
995.079
997.26
997.962
997.766
997.696
997.712
997.717
997.713
997.711
997.708
997.706
997.703
997.7
997.697
997.694
997.69
997.687
997.683
997.679
997.675
995.077
997.259
997.961
997.765
997.695
997.711
997.716
997.713
997.71
997.708
997.705
997.702
997.699
997.696
997.693
997.69
997.686
997.682
997.679
997.675
995.075
997.258
997.96
997.764
997.694
997.71
997.715
997.712
997.709
997.707
997.704
997.702
997.699
997.696
997.693
997.689
997.686
997.682
997.678
997.674
995.074
997.256
997.96
997.764
997.694
997.71
997.715
997.711
997.708
997.706
997.704
997.701
997.698
997.695
997.692
997.689
997.685
997.682
997.678
997.674
995.074
997.255
997.959
997.763
997.694
997.709
997.714
997.711
997.708
997.706
997.703
997.701
997.698
997.695
997.692
997.688
997.685
997.681
997.677
997.674
995.078
997.253
997.959
997.764
997.693
997.709
997.714
997.71
997.708
997.705
997.703
997.7
997.698
997.695
997.691
997.688
997.685
997.681
997.677
997.673
995.095
997.242
997.959
997.767
997.693
997.708
997.714
997.71
997.707
997.705
997.703
997.7
997.697
997.694
997.691
997.688
997.684
997.681
997.677
997.673
995.16
997.199
997.95
997.774
997.694
997.707
997.713
997.71
997.707
997.705
997.703
997.7
997.697
997.694
997.691
997.688
997.684
997.681
997.677
997.673
997.335
997.3
997.268
997.24
997.21
997.178
997.143
997.106
997.07
997.002
997.339
997.304
997.272
997.244
997.215
997.184
997.151
997.116
997.082
997.022
997.334
997.304
997.274
997.248
997.221
997.192
997.161
997.129
997.096
997.045
997.327
997.301
997.274
997.25
997.225
997.198
997.169
997.14
997.11
997.067
997.321
997.299
997.275
997.252
997.229
997.203
997.177
997.15
997.123
997.089
997.316
997.298
997.276
997.255
997.232
997.209
997.184
997.159
997.135
997.109
997.313
997.296
997.277
997.257
997.236
997.214
997.19
997.167
997.146
997.127
997.31
997.295
997.278
997.259
997.239
997.218
997.196
997.174
997.154
997.14
997.31
997.296
997.279
997.261
997.242
997.221
997.199
997.178
997.16
997.15
997.31
997.296
997.28
997.263
997.243
997.222
997.201
997.181
997.163
997.154
997.32
997.328
997.337
997.346
997.355
997.363
997.371
997.379
997.387
997.394
997.402
997.409
997.416
997.422
997.428
997.434
997.44
997.446
997.451
997.456
997.461
997.466
997.471
997.475
997.479
997.483
997.487
997.491
997.495
997.498
997.501
997.505
997.508
997.511
997.514
997.517
997.52
997.523
997.526
997.529
997.532
997.534
997.537
997.54
997.543
997.547
997.55
997.554
997.558
997.561
997.316
997.325
997.334
997.344
997.352
997.361
997.369
997.377
997.385
997.393
997.4
997.407
997.414
997.421
997.427
997.433
997.439
997.445
997.45
997.456
997.461
997.465
997.47
997.474
997.479
997.483
997.487
997.49
997.494
997.498
997.501
997.504
997.508
997.511
997.514
997.517
997.52
997.522
997.525
997.528
997.531
997.534
997.537
997.54
997.543
997.546
997.549
997.553
997.557
997.56
997.312
997.32
997.331
997.34
997.349
997.358
997.367
997.375
997.383
997.391
997.399
997.406
997.413
997.42
997.426
997.432
997.438
997.444
997.449
997.455
997.46
997.465
997.469
997.474
997.478
997.482
997.486
997.49
997.493
997.497
997.5
997.504
997.507
997.51
997.513
997.516
997.519
997.522
997.525
997.528
997.53
997.533
997.536
997.539
997.542
997.545
997.548
997.552
997.555
997.559
997.307
997.315
997.327
997.337
997.346
997.356
997.364
997.373
997.381
997.389
997.397
997.404
997.411
997.418
997.425
997.431
997.437
997.443
997.448
997.454
997.459
997.464
997.468
997.473
997.477
997.481
997.485
997.489
997.493
997.496
997.5
997.503
997.506
997.509
997.512
997.515
997.518
997.521
997.524
997.527
997.53
997.532
997.535
997.538
997.541
997.544
997.547
997.55
997.553
997.556
997.302
997.309
997.322
997.333
997.343
997.353
997.362
997.371
997.379
997.387
997.395
997.403
997.41
997.417
997.423
997.43
997.436
997.442
997.447
997.453
997.458
997.463
997.467
997.472
997.476
997.48
997.484
997.488
997.492
997.495
997.499
997.502
997.505
997.509
997.512
997.515
997.517
997.52
997.523
997.526
997.528
997.531
997.534
997.536
997.539
997.542
997.544
997.547
997.55
997.553
997.297
997.303
997.318
997.33
997.34
997.35
997.36
997.369
997.377
997.386
997.394
997.401
997.409
997.416
997.422
997.429
997.435
997.441
997.446
997.452
997.457
997.462
997.466
997.471
997.475
997.479
997.483
997.487
997.491
997.495
997.498
997.501
997.504
997.508
997.511
997.513
997.516
997.519
997.522
997.524
997.527
997.529
997.532
997.534
997.537
997.539
997.542
997.544
997.547
997.549
997.292
997.298
997.314
997.327
997.338
997.348
997.358
997.367
997.376
997.385
997.393
997.4
997.408
997.415
997.421
997.428
997.434
997.44
997.445
997.451
997.456
997.461
997.465
997.47
997.474
997.479
997.483
997.486
997.49
997.494
997.497
997.5
997.503
997.506
997.509
997.512
997.515
997.518
997.52
997.523
997.525
997.528
997.53
997.532
997.534
997.537
997.539
997.541
997.543
997.545
997.29
997.294
997.312
997.326
997.337
997.348
997.357
997.367
997.376
997.384
997.392
997.4
997.407
997.414
997.421
997.427
997.433
997.439
997.445
997.45
997.455
997.46
997.465
997.469
997.473
997.478
997.481
997.485
997.489
997.492
997.496
997.499
997.502
997.505
997.508
997.511
997.513
997.516
997.518
997.521
997.523
997.525
997.528
997.53
997.532
997.534
997.535
997.537
997.539
997.54
997.288
997.293
997.313
997.327
997.338
997.348
997.358
997.367
997.376
997.384
997.392
997.4
997.407
997.414
997.42
997.427
997.433
997.438
997.444
997.449
997.454
997.459
997.464
997.468
997.472
997.477
997.48
997.484
997.488
997.491
997.495
997.498
997.501
997.504
997.506
997.509
997.512
997.514
997.517
997.519
997.521
997.523
997.525
997.527
997.529
997.53
997.532
997.533
997.534
997.535
997.289
997.3
997.319
997.333
997.343
997.353
997.362
997.371
997.379
997.387
997.394
997.401
997.408
997.415
997.421
997.427
997.433
997.438
997.444
997.449
997.454
997.459
997.463
997.467
997.472
997.476
997.479
997.483
997.487
997.49
997.493
997.496
997.499
997.502
997.505
997.507
997.51
997.512
997.514
997.517
997.519
997.52
997.522
997.524
997.525
997.527
997.528
997.529
997.53
997.53
997.341
997.336
997.337
997.343
997.351
997.359
997.367
997.375
997.382
997.389
997.397
997.403
997.41
997.416
997.422
997.428
997.434
997.439
997.445
997.45
997.455
997.459
997.464
997.468
997.472
997.476
997.48
997.483
997.487
997.49
997.493
997.496
997.499
997.501
997.504
997.506
997.509
997.511
997.513
997.515
997.517
997.519
997.52
997.521
997.523
997.524
997.525
997.525
997.526
997.526
997.355
997.352
997.35
997.354
997.361
997.367
997.374
997.381
997.388
997.394
997.401
997.407
997.413
997.419
997.425
997.431
997.436
997.441
997.446
997.451
997.456
997.46
997.464
997.468
997.472
997.476
997.48
997.483
997.486
997.49
997.493
997.495
997.498
997.501
997.503
997.505
997.508
997.51
997.512
997.514
997.515
997.517
997.518
997.519
997.52
997.521
997.522
997.522
997.522
997.522
997.363
997.363
997.362
997.366
997.371
997.376
997.382
997.388
997.394
997.4
997.406
997.412
997.417
997.423
997.428
997.433
997.438
997.443
997.448
997.453
997.457
997.461
997.465
997.469
997.473
997.476
997.48
997.483
997.486
997.489
997.492
997.495
997.497
997.5
997.502
997.504
997.507
997.508
997.51
997.512
997.513
997.515
997.516
997.517
997.518
997.518
997.519
997.519
997.519
997.519
997.371
997.373
997.373
997.376
997.38
997.385
997.39
997.395
997.4
997.405
997.411
997.416
997.421
997.426
997.431
997.436
997.441
997.446
997.45
997.454
997.458
997.462
997.466
997.47
997.473
997.477
997.48
997.483
997.486
997.489
997.492
997.494
997.497
997.499
997.501
997.503
997.505
997.507
997.509
997.51
997.512
997.513
997.514
997.515
997.515
997.516
997.516
997.516
997.516
997.515
997.381
997.383
997.383
997.386
997.389
997.393
997.397
997.402
997.406
997.411
997.416
997.421
997.425
997.43
997.435
997.439
997.444
997.448
997.452
997.456
997.46
997.464
997.467
997.471
997.474
997.477
997.48
997.483
997.486
997.489
997.492
997.494
997.496
997.499
997.501
997.503
997.504
997.506
997.507
997.509
997.51
997.511
997.512
997.513
997.513
997.513
997.513
997.513
997.512
997.512
997.39
997.392
997.393
997.395
997.398
997.401
997.405
997.409
997.413
997.417
997.421
997.426
997.43
997.434
997.438
997.442
997.446
997.45
997.454
997.458
997.462
997.465
997.468
997.472
997.475
997.478
997.481
997.484
997.486
997.489
997.491
997.494
997.496
997.498
997.5
997.502
997.503
997.505
997.506
997.507
997.508
997.509
997.51
997.51
997.511
997.511
997.511
997.51
997.509
997.508
997.4
997.402
997.402
997.404
997.407
997.409
997.412
997.416
997.419
997.423
997.427
997.43
997.434
997.438
997.442
997.446
997.449
997.453
997.456
997.46
997.463
997.467
997.47
997.473
997.476
997.479
997.481
997.484
997.486
997.489
997.491
997.493
997.495
997.497
997.499
997.501
997.502
997.503
997.505
997.506
997.507
997.507
997.508
997.508
997.508
997.508
997.508
997.507
997.506
997.505
997.41
997.411
997.412
997.413
997.415
997.417
997.42
997.423
997.426
997.429
997.432
997.435
997.439
997.442
997.446
997.449
997.452
997.456
997.459
997.462
997.465
997.468
997.471
997.474
997.477
997.479
997.482
997.484
997.487
997.489
997.491
997.493
997.495
997.497
997.498
997.5
997.501
997.502
997.503
997.504
997.505
997.506
997.506
997.506
997.506
997.506
997.506
997.505
997.504
997.502
997.42
997.42
997.421
997.422
997.424
997.425
997.427
997.43
997.432
997.435
997.438
997.44
997.443
997.446
997.449
997.452
997.455
997.458
997.461
997.464
997.467
997.47
997.473
997.475
997.478
997.48
997.482
997.485
997.487
997.489
997.491
997.493
997.494
997.496
997.498
997.499
997.5
997.501
997.502
997.503
997.504
997.504
997.504
997.504
997.504
997.504
997.503
997.502
997.501
997.5
997.43
997.43
997.43
997.431
997.432
997.433
997.435
997.436
997.438
997.441
997.443
997.445
997.448
997.451
997.453
997.456
997.459
997.461
997.464
997.467
997.469
997.472
997.474
997.476
997.479
997.481
997.483
997.485
997.487
997.489
997.491
997.493
997.494
997.496
997.497
997.498
997.499
997.5
997.501
997.502
997.502
997.502
997.503
997.503
997.502
997.502
997.501
997.5
997.499
997.497
997.439
997.438
997.439
997.439
997.44
997.44
997.442
997.443
997.445
997.446
997.448
997.45
997.453
997.455
997.457
997.459
997.462
997.464
997.467
997.469
997.471
997.473
997.476
997.478
997.48
997.482
997.484
997.486
997.488
997.489
997.491
997.492
997.494
997.495
997.496
997.497
997.498
997.499
997.5
997.5
997.501
997.501
997.501
997.501
997.501
997.5
997.499
997.498
997.497
997.495
997.449
997.447
997.447
997.447
997.447
997.448
997.448
997.449
997.451
997.452
997.454
997.455
997.457
997.459
997.461
997.463
997.465
997.467
997.469
997.471
997.473
997.475
997.477
997.479
997.481
997.483
997.485
997.486
997.488
997.49
997.491
997.492
997.494
997.495
997.496
997.497
997.498
997.498
997.499
997.499
997.5
997.5
997.5
997.499
997.499
997.498
997.497
997.496
997.495
997.493
997.457
997.455
997.455
997.455
997.455
997.455
997.455
997.456
997.456
997.457
997.459
997.46
997.461
997.463
997.465
997.466
997.468
997.47
997.472
997.474
997.475
997.477
997.479
997.481
997.482
997.484
997.486
997.487
997.489
997.49
997.491
997.492
997.494
997.495
997.496
997.496
997.497
997.498
997.498
997.498
997.499
997.499
997.498
997.498
997.498
997.497
997.496
997.495
997.493
997.491
997.466
997.463
997.463
997.462
997.462
997.461
997.461
997.462
997.462
997.463
997.464
997.465
997.466
997.467
997.468
997.47
997.471
997.473
997.474
997.476
997.478
997.479
997.481
997.482
997.484
997.485
997.486
997.488
997.489
997.49
997.491
997.493
997.494
997.494
997.495
997.496
997.496
997.497
997.497
997.498
997.498
997.497
997.497
997.497
997.496
997.495
997.494
997.493
997.492
997.49
997.474
997.471
997.47
997.469
997.468
997.468
997.467
997.467
997.468
997.468
997.469
997.469
997.47
997.471
997.472
997.473
997.474
997.476
997.477
997.478
997.48
997.481
997.482
997.484
997.485
997.486
997.487
997.489
997.49
997.491
997.492
997.493
997.494
997.494
997.495
997.496
997.496
997.496
997.497
997.497
997.497
997.497
997.496
997.496
997.495
997.494
997.493
997.492
997.491
997.489
997.481
997.478
997.477
997.476
997.475
997.474
997.473
997.473
997.473
997.473
997.473
997.474
997.474
997.475
997.476
997.477
997.478
997.479
997.48
997.481
997.482
997.483
997.484
997.485
997.486
997.487
997.488
997.489
997.49
997.491
997.492
997.493
997.494
997.494
997.495
997.495
997.496
997.496
997.496
997.496
997.496
997.496
997.495
997.495
997.494
997.493
997.492
997.491
997.49
997.488
997.488
997.485
997.484
997.482
997.481
997.48
997.479
997.478
997.478
997.478
997.478
997.478
997.478
997.479
997.479
997.48
997.481
997.481
997.482
997.483
997.484
997.485
997.486
997.487
997.488
997.489
997.489
997.49
997.491
997.492
997.493
997.493
997.494
997.494
997.495
997.495
997.495
997.496
997.496
997.496
997.495
997.495
997.495
997.494
997.493
997.493
997.492
997.49
997.489
997.487
997.495
997.491
997.49
997.488
997.486
997.485
997.484
997.483
997.483
997.482
997.482
997.482
997.482
997.482
997.483
997.483
997.483
997.484
997.485
997.485
997.486
997.487
997.488
997.488
997.489
997.49
997.49
997.491
997.492
997.492
997.493
997.494
997.494
997.494
997.495
997.495
997.495
997.495
997.495
997.495
997.495
997.495
997.494
997.494
997.493
997.492
997.491
997.49
997.488
997.487
997.501
997.497
997.495
997.494
997.492
997.49
997.489
997.488
997.487
997.487
997.486
997.486
997.486
997.486
997.486
997.486
997.486
997.487
997.487
997.488
997.488
997.489
997.489
997.49
997.49
997.491
997.492
997.492
997.493
997.493
997.494
997.494
997.494
997.495
997.495
997.495
997.495
997.495
997.495
997.495
997.495
997.494
997.494
997.493
997.492
997.491
997.49
997.489
997.488
997.486
997.506
997.503
997.501
997.499
997.497
997.495
997.494
997.493
997.492
997.491
997.49
997.49
997.489
997.489
997.489
997.489
997.489
997.489
997.49
997.49
997.49
997.491
997.491
997.491
997.492
997.492
997.493
997.493
997.493
997.494
997.494
997.494
997.495
997.495
997.495
997.495
997.495
997.495
997.495
997.495
997.494
997.494
997.493
997.493
997.492
997.491
997.49
997.489
997.488
997.486
997.512
997.508
997.506
997.504
997.502
997.5
997.498
997.497
997.496
997.495
997.494
997.493
997.493
997.492
997.492
997.492
997.492
997.492
997.492
997.492
997.492
997.492
997.493
997.493
997.493
997.493
997.494
997.494
997.494
997.495
997.495
997.495
997.495
997.495
997.495
997.495
997.495
997.495
997.495
997.495
997.494
997.494
997.493
997.492
997.492
997.491
997.49
997.489
997.487
997.486
997.516
997.513
997.511
997.508
997.506
997.504
997.502
997.501
997.5
997.498
997.497
997.497
997.496
997.495
997.495
997.495
997.494
997.494
997.494
997.494
997.494
997.494
997.494
997.494
997.494
997.495
997.495
997.495
997.495
997.495
997.495
997.495
997.496
997.496
997.495
997.495
997.495
997.495
997.495
997.494
997.494
997.494
997.493
997.492
997.492
997.491
997.49
997.489
997.487
997.486
997.521
997.517
997.515
997.513
997.51
997.508
997.506
997.505
997.503
997.502
997.501
997.5
997.499
997.498
997.498
997.497
997.497
997.496
997.496
997.496
997.496
997.496
997.496
997.496
997.496
997.496
997.496
997.496
997.496
997.496
997.496
997.496
997.496
997.496
997.496
997.496
997.495
997.495
997.495
997.494
997.494
997.494
997.493
997.492
997.491
997.491
997.49
997.489
997.488
997.486
997.525
997.522
997.519
997.517
997.514
997.512
997.51
997.508
997.507
997.505
997.504
997.503
997.502
997.501
997.5
997.5
997.499
997.499
997.498
997.498
997.498
997.498
997.497
997.497
997.497
997.497
997.497
997.497
997.497
997.497
997.497
997.497
997.496
997.496
997.496
997.496
997.496
997.495
997.495
997.495
997.494
997.494
997.493
997.492
997.492
997.491
997.49
997.489
997.488
997.487
997.529
997.525
997.523
997.52
997.518
997.516
997.513
997.512
997.51
997.508
997.507
997.506
997.505