/*--------------------------------*- C++ -*----------------------------------*\
  =========                 |
  \\      /  F ield         | OpenFOAM: The Open Source CFD Toolbox
   \\    /   O peration     | Website:  https://openfoam.org
    \\  /    A nd           | Version:  6
     \\/     M anipulation  |
\*---------------------------------------------------------------------------*/
FoamFile
{
    version     2.0;
    format      ascii;
    class       volScalarField;
    location    "1.3";
    object      p;
}
// * * * * * * * * * * * * * * * * * * * * * * * * * * * * * * * * * * * * * //

dimensions      [0 2 -2 0 0 0 0];

internalField   nonuniform List<scalar> 
5600
(
994.193
995.786
996.985
997
996.866
996.848
996.868
996.879
996.886
996.892
996.9
996.909
996.919
996.929
996.94
996.953
996.966
996.981
996.998
997.016
994.124
995.815
997.008
997
996.864
996.849
996.868
996.879
996.885
996.892
996.9
996.909
996.918
996.928
996.939
996.952
996.965
996.98
996.997
997.014
994.086
995.826
997.019
997
996.862
996.848
996.868
996.878
996.884
996.89
996.898
996.906
996.915
996.925
996.936
996.948
996.961
996.975
996.99
997.007
994.044
995.831
997.028
997
996.86
996.847
996.866
996.876
996.881
996.886
996.893
996.901
996.91
996.919
996.929
996.94
996.951
996.964
996.978
996.993
993.993
995.836
997.037
996.999
996.857
996.844
996.863
996.872
996.876
996.881
996.887
996.894
996.902
996.91
996.919
996.928
996.939
996.95
996.961
996.973
993.936
995.842
997.048
996.998
996.854
996.841
996.859
996.867
996.87
996.874
996.88
996.886
996.892
996.899
996.906
996.914
996.922
996.931
996.94
996.948
993.873
995.85
997.06
996.996
996.848
996.837
996.854
996.861
996.863
996.866
996.87
996.875
996.88
996.886
996.891
996.897
996.903
996.909
996.914
996.919
993.807
995.863
997.074
996.993
996.842
996.831
996.848
996.853
996.854
996.856
996.859
996.863
996.866
996.87
996.874
996.878
996.881
996.884
996.886
996.886
993.729
995.886
997.09
996.986
996.832
996.824
996.84
996.844
996.844
996.845
996.847
996.849
996.852
996.854
996.856
996.857
996.858
996.857
996.855
996.851
993.572
995.949
997.116
996.966
996.818
996.817
996.832
996.834
996.833
996.833
996.834
996.835
996.836
996.837
996.837
996.836
996.834
996.83
996.825
996.816
997.04
997.071
997.107
997.147
997.194
997.248
997.308
997.374
997.447
997.621
997.037
997.067
997.102
997.141
997.187
997.238
997.297
997.36
997.429
997.602
997.027
997.055
997.089
997.127
997.17
997.219
997.273
997.332
997.395
997.564
997.009
997.035
997.067
997.102
997.142
997.186
997.236
997.289
997.346
997.505
996.985
997.008
997.037
997.069
997.104
997.143
997.186
997.232
997.281
997.429
996.954
996.973
996.999
997.027
997.058
997.091
997.126
997.163
997.202
997.336
996.918
996.933
996.956
996.98
997.005
997.031
997.058
997.085
997.114
997.229
996.879
996.89
996.909
996.928
996.947
996.966
996.984
997.001
997.018
997.113
996.837
996.844
996.86
996.874
996.886
996.898
996.908
996.915
996.921
996.992
996.793
996.799
996.811
996.819
996.825
996.829
996.83
996.826
996.817
996.864
996.756
996.764
996.769
996.77
996.767
996.758
996.74
996.713
996.683
996.718
996.716
996.72
996.718
996.713
996.702
996.683
996.654
996.615
996.574
996.587
996.672
996.671
996.664
996.652
996.633
996.607
996.569
996.523
996.474
996.464
996.627
996.621
996.608
996.59
996.564
996.53
996.485
996.431
996.376
996.345
996.58
996.569
996.551
996.527
996.496
996.455
996.404
996.344
996.284
996.235
996.533
996.518
996.495
996.467
996.43
996.384
996.328
996.264
996.201
996.135
996.487
996.468
996.442
996.409
996.368
996.318
996.259
996.193
996.127
996.048
996.444
996.421
996.391
996.356
996.312
996.26
996.199
996.132
996.065
995.973
996.403
996.378
996.346
996.308
996.263
996.21
996.148
996.082
996.015
995.912
996.367
996.339
996.306
996.267
996.221
996.168
996.107
996.041
995.974
995.862
996.751
996.71
996.667
996.624
996.58
996.537
996.495
996.455
996.418
996.385
996.738
996.698
996.658
996.618
996.578
996.538
996.5
996.463
996.429
996.398
996.721
996.684
996.646
996.61
996.573
996.537
996.503
996.469
996.439
996.41
996.706
996.671
996.636
996.603
996.57
996.537
996.505
996.475
996.447
996.42
996.693
996.66
996.628
996.598
996.567
996.537
996.508
996.48
996.454
996.43
996.681
996.651
996.621
996.593
996.565
996.537
996.511
996.485
996.461
996.438
996.67
996.642
996.615
996.589
996.563
996.537
996.513
996.489
996.467
996.445
996.66
996.634
996.609
996.585
996.561
996.538
996.515
996.493
996.472
996.451
996.652
996.628
996.604
996.582
996.56
996.538
996.516
996.496
996.476
996.457
996.644
996.621
996.6
996.579
996.558
996.538
996.518
996.499
996.48
996.462
996.637
996.616
996.596
996.576
996.557
996.538
996.519
996.501
996.484
996.467
996.63
996.611
996.592
996.574
996.556
996.538
996.521
996.504
996.488
996.471
996.625
996.607
996.589
996.572
996.555
996.538
996.522
996.506
996.491
996.475
996.62
996.603
996.586
996.57
996.554
996.538
996.523
996.508
996.493
996.479
996.615
996.599
996.583
996.568
996.553
996.538
996.524
996.51
996.496
996.482
996.61
996.596
996.581
996.567
996.553
996.538
996.525
996.511
996.498
996.485
996.607
996.592
996.579
996.565
996.552
996.538
996.525
996.513
996.5
996.487
996.603
996.59
996.577
996.564
996.551
996.538
996.526
996.514
996.502
996.49
996.6
996.587
996.575
996.563
996.551
996.538
996.527
996.515
996.504
996.492
996.596
996.585
996.573
996.561
996.55
996.538
996.527
996.516
996.505
996.494
996.594
996.582
996.571
996.56
996.549
996.538
996.528
996.517
996.506
996.496
996.591
996.58
996.57
996.559
996.549
996.538
996.528
996.518
996.508
996.498
996.589
996.578
996.568
996.558
996.548
996.538
996.528
996.518
996.509
996.499
996.586
996.577
996.567
996.557
996.548
996.538
996.529
996.519
996.51
996.5
996.584
996.575
996.566
996.557
996.547
996.538
996.529
996.52
996.511
996.502
996.582
996.573
996.565
996.556
996.547
996.538
996.529
996.52
996.512
996.503
996.58
996.572
996.563
996.555
996.546
996.538
996.529
996.521
996.512
996.504
996.579
996.57
996.562
996.554
996.546
996.538
996.529
996.521
996.513
996.505
996.577
996.569
996.561
996.553
996.546
996.538
996.53
996.522
996.514
996.506
996.576
996.568
996.56
996.553
996.545
996.537
996.53
996.522
996.514
996.507
996.574
996.567
996.56
996.552
996.545
996.537
996.53
996.522
996.515
996.507
996.573
996.566
996.559
996.552
996.544
996.537
996.53
996.523
996.515
996.508
996.572
996.565
996.558
996.551
996.544
996.537
996.53
996.523
996.516
996.509
996.57
996.564
996.557
996.551
996.544
996.537
996.53
996.523
996.516
996.509
996.569
996.563
996.557
996.55
996.543
996.537
996.53
996.523
996.516
996.51
996.568
996.562
996.556
996.55
996.543
996.537
996.53
996.523
996.517
996.51
996.568
996.562
996.555
996.549
996.543
996.536
996.53
996.524
996.517
996.511
996.567
996.561
996.555
996.549
996.543
996.536
996.53
996.524
996.517
996.511
996.566
996.56
996.554
996.548
996.542
996.536
996.53
996.524
996.518
996.511
996.565
996.56
996.554
996.548
996.542
996.536
996.53
996.524
996.518
996.512
996.565
996.559
996.554
996.548
996.542
996.536
996.53
996.524
996.518
996.512
996.564
996.559
996.553
996.548
996.542
996.536
996.53
996.524
996.518
996.512
996.564
996.558
996.553
996.547
996.542
996.536
996.53
996.524
996.518
996.512
996.563
996.558
996.553
996.547
996.541
996.536
996.53
996.524
996.518
996.512
996.563
996.558
996.552
996.547
996.541
996.536
996.53
996.524
996.518
996.513
996.563
996.557
996.552
996.547
996.541
996.536
996.53
996.524
996.518
996.513
996.562
996.557
996.552
996.547
996.541
996.536
996.53
996.524
996.518
996.513
996.562
996.557
996.552
996.547
996.541
996.535
996.53
996.524
996.519
996.513
996.562
996.557
996.552
996.546
996.541
996.535
996.53
996.524
996.519
996.513
996.562
996.557
996.552
996.546
996.541
996.535
996.53
996.524
996.519
996.513
993.243
996.126
997.167
996.922
996.798
996.811
996.823
996.821
996.819
996.818
996.818
996.817
996.816
996.814
996.812
996.808
996.803
996.795
996.784
996.766
993.098
996.187
997.17
996.894
996.787
996.806
996.815
996.812
996.809
996.808
996.807
996.805
996.803
996.801
996.797
996.792
996.785
996.777
996.765
996.748
993.041
996.19
997.159
996.877
996.777
996.799
996.807
996.803
996.8
996.799
996.797
996.795
996.792
996.788
996.784
996.778
996.771
996.762
996.75
996.734
993.01
996.183
997.15
996.865
996.768
996.79
996.798
996.794
996.791
996.789
996.786
996.784
996.78
996.776
996.771
996.765
996.757
996.747
996.736
996.721
992.987
996.175
997.142
996.855
996.758
996.781
996.789
996.785
996.781
996.779
996.776
996.773
996.769
996.765
996.759
996.752
996.744
996.734
996.722
996.708
992.968
996.166
997.134
996.845
996.749
996.773
996.78
996.776
996.772
996.77
996.766
996.763
996.759
996.753
996.747
996.74
996.732
996.722
996.71
996.696
992.95
996.157
997.127
996.837
996.74
996.764
996.771
996.767
996.763
996.76
996.757
996.753
996.748
996.743
996.737
996.729
996.721
996.711
996.699
996.686
992.932
996.148
997.119
996.828
996.732
996.756
996.763
996.758
996.754
996.751
996.748
996.744
996.739
996.733
996.727
996.719
996.71
996.7
996.689
996.676
992.915
996.139
997.112
996.82
996.723
996.747
996.755
996.75
996.746
996.743
996.739
996.734
996.729
996.724
996.717
996.709
996.701
996.691
996.68
996.667
992.898
996.13
997.105
996.812
996.715
996.739
996.747
996.742
996.738
996.734
996.73
996.726
996.721
996.715
996.708
996.7
996.692
996.682
996.671
996.659
992.881
996.122
997.099
996.805
996.708
996.732
996.739
996.734
996.73
996.726
996.722
996.718
996.712
996.706
996.7
996.692
996.684
996.674
996.664
996.652
992.865
996.113
997.092
996.798
996.7
996.724
996.731
996.726
996.722
996.719
996.714
996.71
996.704
996.698
996.692
996.684
996.676
996.667
996.656
996.645
992.849
996.105
997.086
996.791
996.693
996.717
996.724
996.719
996.715
996.711
996.707
996.702
996.697
996.691
996.684
996.677
996.669
996.66
996.65
996.639
992.834
996.097
997.08
996.784
996.686
996.71
996.717
996.712
996.708
996.704
996.7
996.695
996.69
996.684
996.677
996.67
996.662
996.653
996.644
996.633
992.818
996.09
997.074
996.777
996.679
996.703
996.71
996.705
996.701
996.697
996.693
996.688
996.683
996.677
996.671
996.664
996.656
996.647
996.638
996.628
992.804
996.082
997.069
996.771
996.673
996.697
996.704
996.699
996.694
996.691
996.687
996.682
996.677
996.671
996.665
996.658
996.65
996.642
996.633
996.623
992.79
996.075
997.063
996.765
996.666
996.691
996.698
996.692
996.688
996.685
996.681
996.676
996.671
996.665
996.659
996.652
996.645
996.637
996.628
996.619
992.776
996.068
997.058
996.759
996.66
996.685
996.692
996.687
996.682
996.679
996.675
996.67
996.665
996.659
996.653
996.647
996.64
996.632
996.624
996.615
992.763
996.062
997.053
996.754
996.654
996.679
996.686
996.681
996.677
996.673
996.669
996.665
996.66
996.654
996.648
996.642
996.635
996.627
996.619
996.611
992.751
996.056
997.048
996.748
996.649
996.674
996.681
996.675
996.671
996.668
996.664
996.659
996.655
996.649
996.643
996.637
996.63
996.623
996.616
996.607
992.739
996.049
997.043
996.743
996.644
996.668
996.676
996.67
996.666
996.663
996.659
996.654
996.65
996.644
996.639
996.633
996.626
996.619
996.612
996.604
992.727
996.044
997.039
996.738
996.639
996.663
996.671
996.665
996.661
996.658
996.654
996.65
996.645
996.64
996.635
996.629
996.622
996.616
996.609
996.601
992.716
996.038
997.035
996.733
996.634
996.659
996.666
996.661
996.657
996.653
996.65
996.645
996.641
996.636
996.631
996.625
996.619
996.612
996.605
996.598
992.706
996.033
997.031
996.729
996.629
996.654
996.661
996.656
996.652
996.649
996.645
996.641
996.637
996.632
996.627
996.621
996.615
996.609
996.602
996.596
992.696
996.028
997.027
996.725
996.625
996.65
996.657
996.652
996.648
996.645
996.641
996.637
996.633
996.628
996.623
996.618
996.612
996.606
996.6
996.593
992.687
996.023
997.023
996.72
996.621
996.646
996.653
996.648
996.644
996.641
996.638
996.634
996.629
996.625
996.62
996.615
996.609
996.603
996.597
996.591
992.678
996.018
997.02
996.717
996.617
996.642
996.649
996.644
996.64
996.637
996.634
996.63
996.626
996.622
996.617
996.612
996.606
996.601
996.595
996.588
992.669
996.014
997.016
996.713
996.613
996.638
996.646
996.641
996.637
996.634
996.631
996.627
996.623
996.618
996.614
996.609
996.604
996.598
996.592
996.586
992.661
996.01
997.013
996.709
996.609
996.635
996.642
996.637
996.634
996.631
996.627
996.624
996.62
996.616
996.611
996.606
996.601
996.596
996.59
996.584
992.653
996.006
997.01
996.706
996.606
996.631
996.639
996.634
996.63
996.628
996.624
996.621
996.617
996.613
996.608
996.604
996.599
996.594
996.588
996.583
992.646
996.002
997.008
996.703
996.603
996.628
996.636
996.631
996.627
996.625
996.622
996.618
996.614
996.61
996.606
996.602
996.597
996.592
996.586
996.581
992.639
995.999
997.005
996.7
996.6
996.625
996.633
996.628
996.625
996.622
996.619
996.616
996.612
996.608
996.604
996.599
996.595
996.59
996.585
996.579
992.633
995.996
997.003
996.697
996.597
996.623
996.63
996.626
996.622
996.62
996.617
996.613
996.61
996.606
996.602
996.597
996.593
996.588
996.583
996.578
992.627
995.993
997
996.695
996.595
996.62
996.628
996.623
996.62
996.617
996.614
996.611
996.607
996.604
996.6
996.596
996.591
996.586
996.582
996.577
992.622
995.99
996.998
996.693
996.592
996.618
996.626
996.621
996.617
996.615
996.612
996.609
996.605
996.602
996.598
996.594
996.589
996.585
996.58
996.575
992.616
995.987
996.996
996.69
996.59
996.615
996.623
996.619
996.615
996.613
996.61
996.607
996.604
996.6
996.596
996.592
996.588
996.584
996.579
996.574
992.612
995.985
996.994
996.688
996.588
996.613
996.621
996.617
996.613
996.611
996.608
996.605
996.602
996.598
996.595
996.591
996.587
996.582
996.578
996.573
992.607
995.983
996.993
996.686
996.586
996.612
996.62
996.615
996.612
996.609
996.607
996.604
996.6
996.597
996.593
996.589
996.585
996.581
996.577
996.572
992.603
995.981
996.991
996.685
996.584
996.61
996.618
996.613
996.61
996.608
996.605
996.602
996.599
996.596
996.592
996.588
996.584
996.58
996.576
996.571
992.599
995.979
996.99
996.683
996.583
996.608
996.616
996.612
996.609
996.606
996.604
996.601
996.598
996.594
996.591
996.587
996.583
996.579
996.575
996.571
992.596
995.977
996.988
996.682
996.581
996.607
996.615
996.611
996.607
996.605
996.602
996.6
996.596
996.593
996.59
996.586
996.582
996.578
996.574
996.57
992.593
995.975
996.987
996.68
996.58
996.606
996.614
996.609
996.606
996.604
996.601
996.598
996.595
996.592
996.589
996.585
996.581
996.577
996.573
996.569
992.59
995.974
996.986
996.679
996.579
996.605
996.613
996.608
996.605
996.603
996.6
996.598
996.595
996.591
996.588
996.584
996.581
996.577
996.573
996.569
992.587
995.973
996.985
996.678
996.578
996.604
996.612
996.607
996.604
996.602
996.6
996.597
996.594
996.591
996.587
996.584
996.58
996.576
996.572
996.568
992.585
995.971
996.984
996.678
996.577
996.603
996.611
996.607
996.603
996.601
996.599
996.596
996.593
996.59
996.587
996.583
996.579
996.576
996.572
996.568
992.584
995.97
996.984
996.677
996.577
996.602
996.61
996.606
996.603
996.601
996.598
996.595
996.592
996.589
996.586
996.583
996.579
996.575
996.571
996.567
992.585
995.968
996.983
996.678
996.576
996.602
996.61
996.605
996.602
996.6
996.598
996.595
996.592
996.589
996.586
996.582
996.579
996.575
996.571
996.567
992.59
995.965
996.984
996.679
996.576
996.601
996.609
996.605
996.602
996.6
996.597
996.595
996.592
996.589
996.585
996.582
996.578
996.575
996.571
996.567
992.617
995.949
996.983
996.683
996.576
996.6
996.609
996.605
996.602
996.6
996.597
996.594
996.591
996.588
996.585
996.582
996.578
996.574
996.571
996.567
992.712
995.887
996.97
996.692
996.577
996.599
996.609
996.605
996.602
996.599
996.597
996.594
996.591
996.588
996.585
996.582
996.578
996.574
996.571
996.567
996.216
996.18
996.147
996.117
996.086
996.053
996.017
995.98
995.942
995.872
996.22
996.184
996.15
996.121
996.091
996.059
996.025
995.99
995.954
995.893
996.214
996.183
996.152
996.126
996.098
996.068
996.036
996.003
995.969
995.917
996.207
996.181
996.153
996.128
996.102
996.074
996.045
996.014
995.984
995.94
996.201
996.179
996.153
996.13
996.106
996.08
996.053
996.025
995.998
995.963
996.196
996.177
996.154
996.133
996.11
996.085
996.06
996.034
996.01
995.984
996.192
996.175
996.155
996.135
996.113
996.09
996.066
996.043
996.021
996.002
996.19
996.175
996.156
996.137
996.117
996.095
996.072
996.049
996.03
996.016
996.189
996.175
996.158
996.14
996.119
996.098
996.076
996.054
996.036
996.026
996.19
996.176
996.159
996.141
996.121
996.1
996.078
996.057
996.039
996.03
996.2
996.209
996.218
996.227
996.236
996.244
996.253
996.261
996.269
996.277
996.284
996.291
996.298
996.305
996.312
996.318
996.324
996.33
996.335
996.34
996.345
996.35
996.355
996.359
996.364
996.368
996.372
996.375
996.379
996.382
996.386
996.389
996.392
996.395
996.398
996.401
996.404
996.407
996.41
996.412
996.415
996.418
996.421
996.424
996.427
996.43
996.433
996.436
996.44
996.443
996.196
996.205
996.215
996.224
996.233
996.242
996.251
996.259
996.267
996.275
996.283
996.29
996.297
996.304
996.31
996.317
996.323
996.329
996.334
996.339
996.345
996.349
996.354
996.359
996.363
996.367
996.371
996.375
996.379
996.382
996.385
996.389
996.392
996.395
996.398
996.401
996.404
996.407
996.409
996.412
996.415
996.418
996.42
996.423
996.426
996.429
996.432
996.435
996.439
996.442
996.192
996.2
996.211
996.221
996.23
996.239
996.248
996.257
996.265
996.273
996.281
996.288
996.296
996.302
996.309
996.315
996.322
996.327
996.333
996.339
996.344
996.349
996.353
996.358
996.362
996.366
996.37
996.374
996.378
996.381
996.385
996.388
996.391
996.394
996.397
996.4
996.403
996.406
996.409
996.412
996.414
996.417
996.42
996.422
996.425
996.428
996.431
996.434
996.438
996.441
996.187
996.195
996.207
996.218
996.227
996.237
996.246
996.255
996.263
996.271
996.279
996.287
996.294
996.301
996.308
996.314
996.32
996.326
996.332
996.338
996.343
996.348
996.353
996.357
996.362
996.366
996.37
996.374
996.377
996.381
996.384
996.388
996.391
996.394
996.397
996.4
996.403
996.405
996.408
996.411
996.413
996.416
996.419
996.421
996.424
996.427
996.429
996.432
996.436
996.438
996.181
996.189
996.202
996.214
996.224
996.234
996.243
996.252
996.261
996.269
996.278
996.285
996.293
996.3
996.307
996.313
996.319
996.325
996.331
996.337
996.342
996.347
996.352
996.356
996.361
996.365
996.369
996.373
996.377
996.38
996.384
996.387
996.39
996.393
996.396
996.399
996.402
996.405
996.407
996.41
996.412
996.415
996.417
996.42
996.422
996.425
996.427
996.43
996.433
996.435
996.176
996.182
996.198
996.21
996.221
996.231
996.241
996.25
996.259
996.268
996.276
996.284
996.291
996.299
996.305
996.312
996.318
996.324
996.33
996.336
996.341
996.346
996.351
996.355
996.36
996.364
996.368
996.372
996.376
996.379
996.383
996.386
996.389
996.392
996.395
996.398
996.401
996.404
996.406
996.409
996.411
996.413
996.416
996.418
996.42
996.423
996.425
996.427
996.43
996.432
996.172
996.177
996.194
996.208
996.219
996.229
996.239
996.249
996.258
996.267
996.275
996.283
996.29
996.298
996.305
996.311
996.317
996.324
996.329
996.335
996.34
996.345
996.35
996.355
996.359
996.363
996.367
996.371
996.375
996.378
996.382
996.385
996.388
996.391
996.394
996.397
996.4
996.402
996.405
996.407
996.41
996.412
996.414
996.416
996.418
996.42
996.422
996.424
996.426
996.428
996.169
996.174
996.192
996.207
996.218
996.229
996.239
996.249
996.258
996.266
996.275
996.282
996.29
996.297
996.304
996.311
996.317
996.323
996.329
996.334
996.339
996.344
996.349
996.354
996.358
996.362
996.366
996.37
996.374
996.378
996.381
996.384
996.387
996.39
996.393
996.396
996.398
996.401
996.403
996.406
996.408
996.41
996.412
996.414
996.416
996.417
996.419
996.42
996.422
996.423
996.167
996.173
996.193
996.208
996.219
996.229
996.24
996.249
996.258
996.267
996.275
996.282
996.29
996.297
996.304
996.31
996.316
996.322
996.328
996.333
996.339
996.344
996.348
996.353
996.357
996.362
996.365
996.369
996.373
996.376
996.38
996.383
996.386
996.389
996.392
996.394
996.397
996.399
996.401
996.404
996.406
996.408
996.409
996.411
996.413
996.414
996.415
996.417
996.418
996.418
996.168
996.18
996.2
996.213
996.224
996.234
996.244
996.253
996.261
996.269
996.277
996.284
996.291
996.298
996.305
996.311
996.317
996.323
996.328
996.333
996.338
996.343
996.348
996.352
996.357
996.361
996.365
996.368
996.372
996.375
996.379
996.382
996.385
996.387
996.39
996.393
996.395
996.397
996.4
996.402
996.403
996.405
996.407
996.408
996.41
996.411
996.412
996.412
996.413
996.414
996.222
996.217
996.217
996.224
996.232
996.24
996.249
996.257
996.265
996.272
996.279
996.287
996.293
996.3
996.306
996.312
996.318
996.324
996.329
996.334
996.339
996.344
996.349
996.353
996.357
996.361
996.365
996.369
996.372
996.375
996.378
996.381
996.384
996.387
996.39
996.392
996.394
996.396
996.398
996.4
996.402
996.403
996.405
996.406
996.407
996.408
996.409
996.409
996.409
996.409
996.236
996.234
996.232
996.236
996.242
996.249
996.256
996.263
996.27
996.277
996.284
996.291
996.297
996.303
996.309
996.315
996.32
996.326
996.331
996.336
996.34
996.345
996.349
996.354
996.358
996.361
996.365
996.369
996.372
996.375
996.378
996.381
996.384
996.386
996.389
996.391
996.393
996.395
996.397
996.399
996.4
996.402
996.403
996.404
996.405
996.406
996.406
996.406
996.406
996.406
996.244
996.245
996.244
996.247
996.253
996.258
996.264
996.271
996.277
996.283
996.289
996.295
996.301
996.307
996.312
996.318
996.323
996.328
996.333
996.337
996.342
996.346
996.35
996.354
996.358
996.362
996.365
996.369
996.372
996.375
996.378
996.381
996.383
996.386
996.388
996.39
996.392
996.394
996.396
996.397
996.399
996.4
996.401
996.402
996.403
996.403
996.403
996.403
996.403
996.402
996.253
996.255
996.255
996.258
996.262
996.267
996.272
996.278
996.283
996.289
996.294
996.3
996.305
996.31
996.316
996.321
996.326
996.33
996.335
996.339
996.343
996.348
996.352
996.355
996.359
996.362
996.366
996.369
996.372
996.375
996.378
996.38
996.383
996.385
996.387
996.389
996.391
996.393
996.395
996.396
996.397
996.398
996.399
996.4
996.4
996.401
996.401
996.4
996.4
996.399
996.263
996.265
996.266
996.268
996.272
996.276
996.28
996.285
996.29
996.295
996.3
996.305
996.31
996.314
996.319
996.324
996.328
996.333
996.337
996.341
996.345
996.349
996.353
996.356
996.36
996.363
996.366
996.369
996.372
996.375
996.378
996.38
996.382
996.384
996.387
996.388
996.39
996.392
996.393
996.395
996.396
996.397
996.397
996.398
996.398
996.398
996.398
996.398
996.397
996.396
996.273
996.275
996.276
996.278
996.281
996.285
996.288
996.292
996.297
996.301
996.305
996.31
996.314
996.319
996.323
996.327
996.331
996.335
996.339
996.343
996.347
996.351
996.354
996.357
996.361
996.364
996.367
996.37
996.372
996.375
996.377
996.38
996.382
996.384
996.386
996.388
996.389
996.391
996.392
996.393
996.394
996.395
996.395
996.396
996.396
996.396
996.396
996.395
996.394
996.393
996.284
996.285
996.286
996.288
996.29
996.293
996.296
996.3
996.303
996.307
996.311
996.315
996.319
996.323
996.327
996.331
996.334
996.338
996.342
996.345
996.349
996.352
996.355
996.359
996.362
996.365
996.367
996.37
996.373
996.375
996.377
996.379
996.381
996.383
996.385
996.387
996.388
996.39
996.391
996.392
996.393
996.393
996.394
996.394
996.394
996.394
996.393
996.392
996.391
996.39
996.294
996.295
996.296
996.297
996.299
996.301
996.304
996.307
996.31
996.313
996.317
996.32
996.324
996.327
996.331
996.334
996.338
996.341
996.344
996.348
996.351
996.354
996.357
996.36
996.363
996.365
996.368
996.37
996.373
996.375
996.377
996.379
996.381
996.383
996.385
996.386
996.387
996.389
996.39
996.39
996.391
996.392
996.392
996.392
996.392
996.392
996.391
996.39
996.389
996.387
996.304
996.304
996.305
996.306
996.308
996.31
996.312
996.314
996.317
996.319
996.322
996.325
996.328
996.331
996.335
996.338
996.341
996.344
996.347
996.35
996.353
996.356
996.359
996.361
996.364
996.366
996.369
996.371
996.373
996.375
996.377
996.379
996.381
996.382
996.384
996.385
996.387
996.388
996.388
996.389
996.39
996.39
996.39
996.39
996.39
996.39
996.389
996.388
996.387
996.385
996.315
996.314
996.315
996.315
996.316
996.318
996.319
996.321
996.323
996.326
996.328
996.331
996.333
996.336
996.339
996.341
996.344
996.347
996.35
996.352
996.355
996.358
996.36
996.363
996.365
996.367
996.369
996.372
996.374
996.376
996.377
996.379
996.381
996.382
996.383
996.385
996.386
996.387
996.387
996.388
996.389
996.389
996.389
996.389
996.388
996.388
996.387
996.386
996.385
996.383
996.324
996.323
996.324
996.324
996.325
996.325
996.327
996.328
996.33
996.332
996.334
996.336
996.338
996.34
996.343
996.345
996.348
996.35
996.352
996.355
996.357
996.36
996.362
996.364
996.366
996.368
996.37
996.372
996.374
996.376
996.378
996.379
996.381
996.382
996.383
996.384
996.385
996.386
996.387
996.387
996.387
996.388
996.388
996.387
996.387
996.386
996.385
996.384
996.383
996.381
996.334
996.332
996.332
996.332
996.332
996.333
996.334
996.335
996.336
996.337
996.339
996.341
996.343
996.345
996.347
996.349
996.351
996.353
996.355
996.357
996.359
996.362
996.364
996.366
996.368
996.369
996.371
996.373
996.375
996.376
996.378
996.379
996.38
996.382
996.383
996.384
996.384
996.385
996.386
996.386
996.386
996.386
996.386
996.386
996.386
996.385
996.384
996.383
996.381
996.379
996.343
996.341
996.341
996.34
996.34
996.34
996.341
996.341
996.342
996.343
996.344
996.346
996.347
996.349
996.351
996.352
996.354
996.356
996.358
996.36
996.362
996.364
996.365
996.367
996.369
996.371
996.372
996.374
996.375
996.377
996.378
996.379
996.38
996.382
996.382
996.383
996.384
996.385
996.385
996.385
996.385
996.385
996.385
996.385
996.384
996.384
996.383
996.381
996.38
996.378
996.352
996.349
996.349
996.348
996.347
996.347
996.347
996.348
996.348
996.349
996.35
996.351
996.352
996.353
996.355
996.356
996.358
996.359
996.361
996.362
996.364
996.366
996.367
996.369
996.37
996.372
996.373
996.375
996.376
996.377
996.378
996.38
996.381
996.381
996.382
996.383
996.384
996.384
996.384
996.385
996.385
996.385
996.384
996.384
996.383
996.383
996.382
996.38
996.379
996.377
996.36
996.357
996.356
996.355
996.354
996.354
996.354
996.354
996.354
996.354
996.355
996.355
996.356
996.357
996.358
996.36
996.361
996.362
996.364
996.365
996.366
996.368
996.369
996.37
996.372
996.373
996.374
996.376
996.377
996.378
996.379
996.38
996.381
996.382
996.382
996.383
996.383
996.384
996.384
996.384
996.384
996.384
996.384
996.383
996.382
996.382
996.381
996.379
996.378
996.376
996.368
996.365
996.364
996.362
996.361
996.36
996.36
996.359
996.359
996.359
996.36
996.36
996.361
996.361
996.362
996.363
996.364
996.365
996.366
996.367
996.369
996.37
996.371
996.372
996.373
996.374
996.376
996.377
996.378
996.379
996.379
996.38
996.381
996.382
996.382
996.383
996.383
996.383
996.384
996.384
996.384
996.383
996.383
996.382
996.382
996.381
996.38
996.379
996.377
996.376
996.375
996.372
996.37
996.369
996.367
996.366
996.365
996.365
996.364
996.364
996.364
996.365
996.365
996.365
996.366
996.367
996.367
996.368
996.369
996.37
996.371
996.372
996.373
996.374
996.375
996.376
996.377
996.378
996.378
996.379
996.38
996.381
996.381
996.382
996.382
996.383
996.383
996.383
996.383
996.383
996.383
996.383
996.382
996.382
996.381
996.38
996.379
996.378
996.377
996.375
996.382
996.378
996.377
996.375
996.373
996.372
996.371
996.37
996.369
996.369
996.369
996.369
996.369
996.369
996.369
996.37
996.37
996.371
996.372
996.372
996.373
996.374
996.375
996.376
996.376
996.377
996.378
996.379
996.379
996.38
996.381
996.381
996.382
996.382
996.382
996.383
996.383
996.383
996.383
996.383
996.383
996.383
996.382
996.382
996.381
996.38
996.379
996.378
996.377
996.375
996.388
996.385
996.383
996.381
996.379
996.377
996.376
996.375
996.374
996.374
996.373
996.373
996.373
996.373
996.373
996.373
996.373
996.374
996.374
996.375
996.375
996.376
996.377
996.377
996.378
996.378
996.379
996.38
996.38
996.381
996.381
996.382
996.382
996.382
996.383
996.383
996.383
996.383
996.383
996.383
996.383
996.382
996.382
996.381
996.381
996.38
996.379
996.378
996.376
996.375
996.394
996.39
996.388
996.386
996.384
996.383
996.381
996.38
996.379
996.378
996.377
996.377
996.377
996.376
996.376
996.376
996.376
996.377
996.377
996.377
996.378
996.378
996.378
996.379
996.379
996.38
996.38
996.381
996.381
996.382
996.382
996.382
996.383
996.383
996.383
996.383
996.383
996.383
996.383
996.383
996.383
996.382
996.382
996.381
996.38
996.38
996.379
996.378
996.377
996.375
996.399
996.396
996.394
996.391
996.389
996.387
996.386
996.384
996.383
996.382
996.381
996.381
996.38
996.38
996.379
996.379
996.379
996.379
996.379
996.379
996.38
996.38
996.38
996.381
996.381
996.381
996.382
996.382
996.382
996.382
996.383
996.383
996.383
996.383
996.383
996.383
996.383
996.383
996.383
996.383
996.383
996.382
996.382
996.381
996.38
996.38
996.379
996.378
996.377
996.375
996.405
996.401
996.399
996.396
996.394
996.392
996.39
996.389
996.387
996.386
996.385
996.384
996.383
996.383
996.382
996.382
996.382
996.382
996.382
996.382
996.382
996.382
996.382
996.382
996.382
996.383
996.383
996.383
996.383
996.383
996.383
996.384
996.384
996.384
996.384
996.384
996.384
996.384
996.383
996.383
996.383
996.382
996.382
996.381
996.381
996.38
996.379
996.378
996.377
996.376
996.409
996.406
996.403
996.401
996.398
996.396
996.394
996.393
996.391
996.39
996.389
996.388
996.387
996.386
996.385
996.385
996.385
996.384
996.384
996.384
996.384
996.384
996.384
996.384
996.384
996.384
996.384
996.384
996.384
996.384
996.384
996.384
996.384
996.384
996.384
996.384
996.384
996.384
996.384
996.383
996.383
996.382
996.382
996.381
996.381
996.38
996.379
996.378
996.377
996.376
996.414
996.41
996.407
996.405
996.402
996.4
996.398
996.396
996.395
996.393
996.392
996.391
996.39
996.389
996.388
996.388
996.387
996.387
996.386
996.386
996.386
996.386
996.385
996.385
996.385
996.385
996.385
996.385
996.385
996.385
996.385
996.385
996.385
996.385
996.385
996.385
996.384
996.384
996.384
996.384
996.383
996.383
996.382
996.382
996.381
996.38
996.38
996.379
996.378
996.377
996.418
996.414
996.411
996.409
996.406
996.404
996.402
996.4
996.398
996.396
996.395
996.394
996.393
996.392
996.391
996.39
996.389
996.389
996.388
996.388
996.388