/*--------------------------------*- C++ -*----------------------------------*\
  =========                 |
  \\      /  F ield         | OpenFOAM: The Open Source CFD Toolbox
   \\    /   O peration     | Website:  https://openfoam.org
    \\  /    A nd           | Version:  6
     \\/     M anipulation  |
\*---------------------------------------------------------------------------*/
FoamFile
{
    version     2.0;
    format      ascii;
    class       surfaceScalarField;
    location    "1.3";
    object      phi;
}
// * * * * * * * * * * * * * * * * * * * * * * * * * * * * * * * * * * * * * //

dimensions      [0 3 -1 0 0 0 0];

internalField   nonuniform List<scalar> 
11030
(
0.000120335
5.14146e-07
0.000120417
-8.23252e-08
0.000120208
2.08476e-07
0.000119707
5.01357e-07
0.000119257
4.5025e-07
0.000118856
4.00885e-07
0.000118414
4.41405e-07
0.000117904
5.10955e-07
0.000117319
5.84278e-07
0.000116652
6.67452e-07
0.000115886
7.6598e-07
0.000115005
8.80999e-07
0.000113991
1.0135e-06
0.000112826
1.1655e-06
0.000111486
1.33949e-06
0.000109948
1.53799e-06
0.000108185
1.76284e-06
0.000106172
2.01356e-06
0.000103888
2.28413e-06
2.55338e-06
0.000101334
0.000121214
1.29419e-07
0.000120806
3.25635e-07
0.000120176
8.38232e-07
0.000119679
9.98683e-07
0.000119232
8.97053e-07
0.000118759
8.74093e-07
0.000118239
9.60778e-07
0.000117665
1.08512e-06
0.000117023
1.22644e-06
0.000116297
1.39338e-06
0.000115471
1.59187e-06
0.000114528
1.82359e-06
0.000113451
2.09089e-06
0.000112219
2.3977e-06
0.00011081
2.74878e-06
0.000109199
3.14896e-06
0.00010736
3.60168e-06
0.000105268
4.10576e-06
0.000102903
4.64901e-06
5.19349e-06
0.000100263
0.000120797
8.71562e-08
0.000120615
5.07921e-07
0.000120142
1.31108e-06
0.000119626
1.51507e-06
0.000119138
1.38451e-06
0.000118632
1.38082e-06
0.000118073
1.51906e-06
0.000117453
1.70532e-06
0.000116761
1.91898e-06
0.000115981
2.17273e-06
0.000115099
2.4738e-06
0.000114098
2.8245e-06
0.000112961
3.22842e-06
0.000111667
3.69133e-06
0.000110196
4.22013e-06
0.000108523
4.82178e-06
0.000106623
5.50133e-06
0.000104472
6.25702e-06
0.00010205
7.071e-06
7.89126e-06
9.93524e-05
0.00012062
1.35802e-07
0.000120411
7.17393e-07
0.000119976
1.7461e-06
0.000119481
2.01015e-06
0.000118992
1.87274e-06
0.000118474
1.89951e-06
0.000117894
2.09894e-06
0.000117243
2.35635e-06
0.000116512
2.64992e-06
0.000115688
2.99624e-06
0.000114758
3.40412e-06
0.000113706
3.87655e-06
0.000112516
4.41831e-06
0.00011117
5.0369e-06
0.000109649
5.74121e-06
0.000107931
6.54021e-06
0.000105992
7.44041e-06
0.000103809
8.43955e-06
0.000101366
9.51443e-06
1.06012e-05
9.86559e-05
0.000120453
2.59352e-07
0.000120195
9.75687e-07
0.000119773
2.16743e-06
0.0001193
2.48316e-06
0.000118822
2.35131e-06
0.0001183
2.42093e-06
0.000117707
2.69238e-06
0.000117032
3.0309e-06
0.000116269
3.41291e-06
0.000115407
3.85843e-06
0.000114434
4.37756e-06
0.000113336
4.97382e-06
0.000112102
5.65311e-06
0.000110714
6.42449e-06
0.000109157
7.29859e-06
0.000107411
8.2861e-06
0.000105456
9.39478e-06
0.000103274
1.06218e-05
0.00010085
1.19389e-05
1.32726e-05
9.81783e-05
0.000120265
4.718e-07
0.000119957
1.28372e-06
0.00011956
2.56402e-06
0.000119119
2.92458e-06
0.000118655
2.81511e-06
0.000118133
2.94319e-06
0.000117526
3.29933e-06
0.000116827
3.72994e-06
0.00011603
4.20935e-06
0.000115128
4.76034e-06
0.000114112
5.39406e-06
0.000112971
6.11446e-06
0.000111696
6.92841e-06
0.000110274
7.84634e-06
0.000108692
8.88033e-06
0.000106936
1.00424e-05
0.000104989
1.13413e-05
0.000102838
1.27736e-05
0.00010047
1.43064e-05
1.58589e-05
9.78838e-05
0.000120007
8.34496e-07
0.000119659
1.63248e-06
0.000119345
2.87728e-06
0.000118963
3.30668e-06
0.000118515
3.26321e-06
0.000117986
3.47217e-06
0.000117358
3.92776e-06
0.000116625
4.46295e-06
0.000115786
5.04861e-06
0.000114836
5.70982e-06
0.000113771
6.45904e-06
0.000112585
7.30085e-06
0.00011127
8.24311e-06
0.000109819
9.29742e-06
0.000108222
1.04769e-05
0.00010647
1.17946e-05
0.000104552
1.32598e-05
0.000102457
1.48687e-05
0.000100178
1.65849e-05
1.8324e-05
9.77129e-05
0.000119547
1.54296e-06
0.000119207
1.9725e-06
0.000119141
2.94357e-06
0.000118865
3.58245e-06
0.000118417
3.71107e-06
0.000117863
4.02618e-06
0.000117196
4.59487e-06
0.000116411
5.24801e-06
0.000115513
5.94724e-06
0.000114502
6.71995e-06
0.00011338
7.58159e-06
0.000112143
8.53806e-06
0.000110788
9.59824e-06
0.00010931
1.07746e-05
0.000107706
1.2081e-05
0.00010597
1.35307e-05
0.000104097
1.51334e-05
0.00010208
1.68855e-05
9.99151e-05
1.87496e-05
2.06455e-05
9.75937e-05
0.000118414
3.27289e-06
0.000118522
1.86456e-06
0.000119074
2.39165e-06
0.000118884
3.77261e-06
0.000118364
4.23129e-06
0.000117748
4.64223e-06
0.000117013
5.32949e-06
0.000116149
6.11236e-06
0.000115169
6.92709e-06
0.000114083
7.80643e-06
0.000112892
8.77232e-06
0.000111597
9.83266e-06
0.000110198
1.0997e-05
0.000108695
1.22781e-05
0.000107086
1.36896e-05
0.000105373
1.52442e-05
0.000103555
1.69514e-05
0.000101632
1.88089e-05
9.96003e-05
2.07808e-05
2.27863e-05
9.74594e-05
0.000116432
6.95268e-06
0.000118426
-1.28826e-07
0.000119522
1.29483e-06
0.000119064
4.23131e-06
0.000118351
4.94371e-06
0.000117615
5.3786e-06
0.000116765
6.17978e-06
0.000115791
7.0864e-06
0.000114713
8.00461e-06
0.000113541
8.97802e-06
0.000112278
1.00357e-05
0.000110924
1.11869e-05
0.00010948
1.24407e-05
0.000107949
1.38091e-05
0.000106335
1.53041e-05
0.000104643
1.69359e-05
0.000102883
1.87109e-05
0.000101065
2.06275e-05
9.91747e-05
2.26708e-05
9.71949e-05
2.47661e-05
9.07043e-05
1.06302e-05
7.99267e-05
1.07775e-05
6.89863e-05
1.09404e-05
5.78761e-05
1.11102e-05
4.66082e-05
1.12679e-05
3.52528e-05
1.13554e-05
2.40234e-05
1.12294e-05
1.34439e-05
1.05795e-05
4.63063e-06
8.81328e-06
4.63063e-06
8.97116e-05
2.11811e-05
7.90091e-05
2.148e-05
6.81483e-05
2.18012e-05
5.71249e-05
2.21336e-05
4.59545e-05
2.24383e-05
3.47125e-05
2.25974e-05
2.36145e-05
2.23274e-05
1.31821e-05
2.10119e-05
4.56847e-06
1.74269e-05
9.1991e-06
8.88692e-05
3.16644e-05
7.82329e-05
3.21163e-05
6.74425e-05
3.25916e-05
5.64956e-05
3.30805e-05
4.54098e-05
3.35241e-05
3.42636e-05
3.37436e-05
2.32769e-05
3.3314e-05
1.2975e-05
3.13139e-05
4.48432e-06
2.59176e-05
1.36834e-05
8.82175e-05
4.21028e-05
7.7628e-05
4.27058e-05
6.68904e-05
4.33292e-05
5.60025e-05
4.39684e-05
4.49818e-05
4.45447e-05
3.39088e-05
4.48166e-05
2.30071e-05
4.42158e-05
1.28043e-05
4.15167e-05
4.41592e-06
3.43059e-05
1.80993e-05
8.77629e-05
5.25182e-05
7.71988e-05
5.32699e-05
6.64935e-05
5.40345e-05
5.56431e-05
5.48188e-05
4.46642e-05
5.55236e-05
3.36385e-05
5.58423e-05
2.27936e-05
5.50607e-05
1.26626e-05
5.16477e-05
4.35629e-06
4.26122e-05
2.24556e-05
8.74744e-05
6.29276e-05
7.69172e-05
6.38271e-05
6.62251e-05
6.47266e-05
5.5391e-05
6.56529e-05
4.443e-05
6.64846e-05
3.34258e-05
6.68465e-05
2.26123e-05
6.58742e-05
1.25316e-05
6.17283e-05
4.29599e-06
5.08479e-05
2.67516e-05
8.72948e-05
7.33457e-05
7.67293e-05
7.43927e-05
6.6034e-05
7.54219e-05
5.51962e-05
7.64907e-05
4.42303e-05
7.74506e-05
3.32246e-05
7.78522e-05
2.24235e-05
7.66754e-05
1.23828e-05
7.1769e-05
4.22062e-06
5.901e-05
3.09722e-05
8.71463e-05
8.37931e-05
7.65566e-05
8.49823e-05
6.58432e-05
8.61353e-05
5.49822e-05
8.73516e-05
4.39915e-05
8.84414e-05
3.29682e-05
8.88754e-05
2.21721e-05
8.74715e-05
1.21778e-05
8.17633e-05
4.11135e-06
6.70764e-05
3.50836e-05
8.69137e-05
9.43388e-05
7.62792e-05
9.56169e-05
6.55303e-05
9.68842e-05
5.46297e-05
9.82522e-05
4.36055e-05
9.94656e-05
3.2566e-05
9.99149e-05
2.17892e-05
9.82483e-05
1.18688e-05
9.16837e-05
3.94185e-06
7.50034e-05
3.90254e-05
8.63398e-05
0.000105194
7.56747e-05
0.000106282
6.48755e-05
0.000107683
5.39427e-05
0.000109185
4.29121e-05
0.000110496
3.18968e-05
0.00011093
2.11873e-05
0.000108958
1.13888e-05
0.000101482
3.65921e-06
8.2733e-05
4.26846e-05
3.32443e-05
0.000110876
-3.89262e-05
2.7591e-05
0.000111935
2.20232e-05
0.000113251
1.65889e-05
0.000114619
1.14387e-05
0.000115646
6.84013e-06
0.000115529
3.16783e-06
0.00011263
8.09298e-07
0.000103841
-8.11282e-08
8.36234e-05
4.26035e-05
2.70064e-05
0.000115977
-3.21079e-05
2.18862e-05
0.000117055
1.68593e-05
0.000118278
1.20384e-05
0.00011944
7.59355e-06
0.000120091
3.79243e-06
0.00011933
9.80843e-07
0.000115442
-5.15673e-07
0.000105337
-6.34548e-07
8.37423e-05
4.1969e-05
2.0781e-05
0.000120532
-2.53354e-05
1.62158e-05
0.000121621
1.17723e-05
0.000122722
7.59358e-06
0.000123619
3.87492e-06
0.00012381
8.86486e-07
0.000122318
-1.05414e-06
0.000117382
-1.68905e-06
0.000105972
-1.06734e-06
8.31206e-05
4.09016e-05
1.46316e-05
0.000124548
-1.8648e-05
1.06407e-05
0.000125612
6.80794e-06
0.000126554
3.29791e-06
0.000127129
3.24839e-07
0.000126783
-1.84156e-06
0.000124485
-2.9153e-06
0.000118456
-2.71359e-06
0.00010577
-1.41283e-06
8.18198e-05
3.94888e-05
8.60567e-06
0.000128026
-1.20836e-05
5.19849e-06
0.000129019
1.99704e-06
0.000129756
-8.20878e-07
0.000129947
-3.03064e-06
0.000128993
-4.37026e-06
0.000125824
-4.59256e-06
0.000118678
-3.59658e-06
0.000104774
-1.68673e-06
7.991e-05
3.78021e-05
2.73426e-06
0.000130963
-5.67137e-06
-8.13192e-08
0.000131834
-2.63552e-06
0.00013231
-4.74256e-06
0.000132054
-6.17573e-06
0.000130426
-6.68942e-06
0.000126338
-6.08363e-06
0.000118073
-4.34445e-06
0.000103035
-1.89772e-06
7.74633e-05
3.59044e-05
-2.96172e-06
0.000133355
5.6999e-07
-5.17741e-06
0.00013405
-7.07049e-06
0.000134203
-8.45157e-06
0.000133435
-9.09955e-06
0.000131074
-8.79406e-06
0.000126033
-7.39043e-06
0.000116669
-4.96482e-06
0.00010061
-2.05403e-06
7.45525e-05
3.38503e-05
-8.47041e-06
0.000135194
6.63083e-06
-1.00759e-05
0.000135656
-1.1294e-05
0.000135421
-1.19359e-05
0.000134077
-1.17936e-05
0.000130932
-1.06808e-05
0.00012492
-8.51574e-06
0.000114504
-5.46538e-06
9.75593e-05
-2.16305e-06
7.12501e-05
3.16873e-05
-1.37855e-05
0.000136473
1.25071e-05
-1.47666e-05
0.000136637
-1.52924e-05
0.000135947
-1.51803e-05
0.000133965
-1.42436e-05
0.000129995
-1.234e-05
0.000123016
-9.45812e-06
0.000111622
-5.85284e-06
9.3954e-05
-2.23254e-06
6.76298e-05
2.94547e-05
-1.88975e-05
1.82037e-05
0.000137167
-1.92231e-05
0.000136962
-1.90253e-05
0.000135749
-1.81369e-05
0.000133077
-1.64041e-05
0.000128262
-1.37399e-05
0.000120352
-1.02074e-05
0.000108089
-6.13725e-06
8.98838e-05
-2.27984e-06
6.37724e-05
2.71749e-05
8.53094e-05
-3.95271e-05
-8.47084e-05
8.6136e-05
-3.29345e-05
8.71617e-05
-2.63611e-05
8.83291e-05
-1.98154e-05
8.95972e-05
-1.33516e-05
9.09182e-05
-6.99238e-06
9.22412e-05
-7.53036e-07
9.35156e-05
5.35642e-06
9.46938e-05
1.13289e-05
1.71769e-05
9.57206e-05
8.61104e-05
-3.99483e-05
-8.56892e-05
8.67227e-05
-3.35469e-05
8.75341e-05
-2.71724e-05
8.85016e-05
-2.0783e-05
8.95875e-05
-1.44376e-05
9.07511e-05
-8.15602e-06
9.1949e-05
-1.95094e-06
9.31379e-05
4.1676e-06
9.4276e-05
1.01908e-05
1.61351e-05
9.53178e-05
8.67847e-05
-4.01604e-05
-8.65725e-05
8.72065e-05
-3.39686e-05
8.78223e-05
-2.77882e-05
8.86021e-05
-2.15628e-05
8.95135e-05
-1.53489e-05
9.05222e-05
-9.16474e-06
9.15923e-05
-3.02103e-06
9.26877e-05
3.0722e-06
9.37731e-05
9.10536e-06
1.50958e-05
9.48124e-05
8.73621e-05
-4.02185e-05
-8.73041e-05
8.76193e-05
-3.42258e-05
8.80609e-05
-2.82298e-05
8.8667e-05
-2.2169e-05
8.94124e-05
-1.60943e-05
9.02699e-05
-1.00223e-05
9.1211e-05
-3.96209e-06
9.22065e-05
2.07666e-06
9.32276e-05
8.08432e-06
1.40778e-05
9.42456e-05
8.78366e-05
-4.01539e-05
-8.79012e-05
8.79557e-05
-3.43449e-05
8.82467e-05
-2.85208e-05
8.86981e-05
-2.26204e-05
8.92917e-05
-1.66879e-05
9.00074e-05
-1.0738e-05
9.08234e-05
-4.7781e-06
9.17173e-05
1.1828e-06
9.2666e-05
7.13564e-06
1.30964e-05
9.36474e-05
8.82092e-05
-3.99822e-05
-8.83808e-05
8.82098e-05
-3.43456e-05
8.83715e-05
-2.86825e-05
8.86886e-05
-2.29374e-05
8.91482e-05
-1.71476e-05
8.97359e-05
-1.13256e-05
9.04357e-05
-5.47796e-06
9.1231e-05
3.87477e-07
9.21042e-05
6.26247e-06
1.21621e-05
9.30385e-05
8.8489e-05
-3.97152e-05
-8.8756e-05
8.8386e-05
-3.42426e-05
8.84365e-05
-2.87331e-05
8.86377e-05
-2.31385e-05
8.89806e-05
-1.74905e-05
8.94551e-05
-1.18001e-05
9.00498e-05
-6.07268e-06
9.07528e-05
-3.15515e-07
9.15511e-05
5.46421e-06
1.12808e-05
9.24323e-05
8.86872e-05
-3.93631e-05
-8.90393e-05
8.84931e-05
-3.40485e-05
8.84472e-05
-2.86872e-05
8.85482e-05
-2.32395e-05
8.879e-05
-1.77323e-05
8.91653e-05
-1.21754e-05
8.96663e-05
-6.57368e-06
9.02847e-05
-9.33869e-07
9.10111e-05
4.73774e-06
1.04548e-05
9.18371e-05
8.8815e-05
-3.89351e-05
-8.9243e-05
8.85404e-05
-3.37738e-05
8.84104e-05
-2.85572e-05
8.84245e-05
-2.32537e-05
8.85785e-05
-1.78863e-05
8.88672e-05
-1.2464e-05
8.92852e-05
-6.99175e-06
8.98271e-05
-1.47568e-06
9.04863e-05
4.0785e-06
9.68386e-06
9.12573e-05
8.8883e-05
-3.84395e-05
-8.93786e-05
8.85371e-05
-3.34279e-05
8.83332e-05
-2.83533e-05
8.82716e-05
-2.3192e-05
8.8349e-05
-1.79638e-05
8.85619e-05
-1.26769e-05
8.89068e-05
-7.3366e-06
8.93799e-05
-1.9488e-06
8.99771e-05
3.48129e-06
8.96599e-06
9.06949e-05
8.8901e-05
-3.78836e-05
-8.94569e-05
8.84917e-05
-3.30186e-05
8.82228e-05
-2.80844e-05
8.80945e-05
-2.30638e-05
8.81048e-05
-1.79741e-05
8.82512e-05
-1.28233e-05
8.85313e-05
-7.61675e-06
8.89429e-05
-2.36041e-06
8.94834e-05
2.9408e-06
8.29842e-06
9.0151e-05
8.88778e-05
-3.7274e-05
-8.94874e-05
8.84121e-05
-3.25529e-05
8.80855e-05
-2.77577e-05
8.78984e-05
-2.28767e-05
8.78494e-05
-1.79252e-05
8.79371e-05
-1.29109e-05
8.81598e-05
-7.83948e-06
8.85163e-05
-2.71692e-06
8.90051e-05
2.452e-06
7.67792e-06
8.96256e-05
8.8821e-05
-3.66165e-05
-8.94785e-05
8.83051e-05
-3.2037e-05
8.7927e-05
-2.73796e-05
8.76877e-05
-2.26373e-05
8.75862e-05
-1.78237e-05
8.76216e-05
-1.29463e-05
8.77932e-05
-8.01103e-06
8.81002e-05
-3.02393e-06
8.85419e-05
2.01023e-06
7.10117e-06
8.91187e-05
8.87373e-05
-3.59162e-05
-8.94377e-05
8.81764e-05
-3.14762e-05
8.77525e-05
-2.69557e-05
8.74665e-05
-2.23513e-05
8.73181e-05
-1.76753e-05
8.73069e-05
-1.29351e-05
8.74325e-05
-8.13667e-06
8.76949e-05
-3.28627e-06
8.80937e-05
1.61134e-06
6.56494e-06
8.863e-05
8.86323e-05
-3.51773e-05
-8.93711e-05
8.80312e-05
-3.08751e-05
8.75661e-05
-2.64906e-05
8.72383e-05
-2.20234e-05
8.70479e-05
-1.74849e-05
8.69947e-05
-1.2882e-05
8.7079e-05
-8.22095e-06
8.73009e-05
-3.50815e-06
8.76606e-05
1.25164e-06
6.06625e-06
8.81593e-05
8.85109e-05
-3.4404e-05
-8.92842e-05
8.78736e-05
-3.02378e-05
8.73715e-05
-2.59886e-05
8.70061e-05
-2.1658e-05
8.67777e-05
-1.72565e-05
8.66868e-05
-1.2791e-05
8.67336e-05
-8.26775e-06
8.69186e-05
-3.69319e-06
8.72424e-05
9.27856e-07
5.60232e-06
8.77063e-05
8.8377e-05
-3.35995e-05
-8.91814e-05
8.77072e-05
-2.9568e-05
8.71718e-05
-2.54532e-05
8.67724e-05
-2.12586e-05
8.65097e-05
-1.69939e-05
8.63845e-05
-1.26657e-05
8.63972e-05
-8.28047e-06
8.65486e-05
-3.84457e-06
8.68393e-05
6.37106e-07
5.17065e-06
8.7271e-05
8.8234e-05
-3.2767e-05
-8.90665e-05
8.75348e-05
-2.88688e-05
8.69693e-05
-2.48876e-05
8.65391e-05
-2.08285e-05
8.62454e-05
-1.67001e-05
8.60889e-05
-1.25092e-05
8.60705e-05
-8.26208e-06
8.61911e-05
-3.9651e-06
8.64514e-05
3.76819e-07
4.76895e-06
8.6853e-05
8.80847e-05
-3.19092e-05
-8.89425e-05
8.73589e-05
-2.8143e-05
8.67661e-05
-2.42949e-05
8.63081e-05
-2.03705e-05
8.59861e-05
-1.63781e-05
8.58012e-05
-1.23243e-05
8.57543e-05
-8.21519e-06
8.58464e-05
-4.05723e-06
8.60786e-05
1.44695e-07
4.39515e-06
8.64524e-05
8.79313e-05
-3.10285e-05
-8.8812e-05
8.71815e-05
-2.73932e-05
8.6564e-05
-2.36773e-05
8.60807e-05
-1.98872e-05
8.57329e-05
-1.60304e-05
8.55219e-05
-1.21133e-05
8.54489e-05
-8.14215e-06
8.55149e-05
-4.12321e-06
8.57209e-05
-6.13399e-08
4.04733e-06
8.60687e-05
8.77758e-05
-3.0127e-05
-8.86773e-05
8.70043e-05
-2.66217e-05
8.63643e-05
-2.30374e-05
8.58579e-05
-1.93807e-05
8.54866e-05
-1.56591e-05
8.52517e-05
-1.18785e-05
8.51547e-05
-8.04507e-06
8.51965e-05
-4.16502e-06
8.53783e-05
-2.43167e-07
3.72376e-06
8.57019e-05
8.76198e-05
-2.92067e-05
-8.85401e-05
8.68285e-05
-2.58304e-05
8.61681e-05
-2.2377e-05
8.56406e-05
-1.88533e-05
8.52478e-05
-1.52663e-05
8.49911e-05
-1.16218e-05
8.48718e-05
-7.92582e-06
8.48913e-05
-4.18448e-06
8.50506e-05
-4.02507e-07
3.42282e-06
8.53516e-05
8.74645e-05
-2.82694e-05
-8.84018e-05
8.66553e-05
-2.50211e-05
8.59763e-05
-2.16979e-05
8.54296e-05
-1.83066e-05
8.50171e-05
-1.48537e-05
8.47402e-05
-1.13449e-05
8.46006e-05
-7.78615e-06
8.45993e-05
-4.18325e-06
8.47378e-05
-5.40936e-07
3.14302e-06
8.50176e-05
8.73111e-05
-2.73166e-05
-8.82639e-05
8.64856e-05
-2.41956e-05
8.57896e-05
-2.1002e-05
8.52254e-05
-1.77424e-05
8.47948e-05
-1.44231e-05
8.44995e-05
-1.10496e-05
8.43409e-05
-7.62761e-06
8.43205e-05
-4.16284e-06
8.44395e-05
-6.59915e-07
2.88296e-06
8.46995e-05
8.71605e-05
-2.63498e-05
-8.81273e-05
8.63201e-05
-2.33552e-05
8.56087e-05
-2.02905e-05
8.50284e-05
-1.71621e-05
8.45812e-05
-1.39759e-05
8.42688e-05
-1.07372e-05
8.40929e-05
-7.45164e-06
8.40547e-05
-4.12465e-06
8.41556e-05
-7.6079e-07
2.64134e-06
8.43972e-05
8.70134e-05
-2.53702e-05
-8.7993e-05
8.61595e-05
-2.25014e-05
8.54339e-05
-1.95649e-05
8.48389e-05
-1.65671e-05
8.43765e-05
-1.35135e-05
8.40485e-05
-1.04092e-05
8.38564e-05
-7.25955e-06
8.38017e-05
-4.06997e-06
8.38857e-05
-8.44813e-07
2.41696e-06
8.41101e-05
8.68704e-05
-2.4379e-05
-8.78616e-05
8.60043e-05
-2.16352e-05
8.52658e-05
-1.88264e-05
8.46573e-05
-1.59586e-05
8.41809e-05
-1.30371e-05
8.38383e-05
-1.00667e-05
8.36314e-05
-7.05256e-06
8.35614e-05
-3.99997e-06
8.36297e-05
-9.13148e-07
2.20867e-06
8.3838e-05
8.67321e-05
-2.33772e-05
-8.77339e-05
8.58548e-05
-2.07579e-05
8.51045e-05
-1.80762e-05
8.44836e-05
-1.53378e-05
8.39943e-05
-1.25478e-05
8.36384e-05
-9.71077e-06
8.34177e-05
-6.83179e-06
8.33335e-05
-3.91578e-06
8.33872e-05
-9.66881e-07
2.0154e-06
8.35805e-05
8.65989e-05
-2.23659e-05
-8.76103e-05
8.57113e-05
-1.98703e-05
8.49503e-05
-1.73151e-05
8.43181e-05
-1.47056e-05
8.38169e-05
-1.20466e-05
8.34487e-05
-9.34258e-06
8.32152e-05
-6.59825e-06
8.31178e-05
-3.8184e-06
8.3158e-05
-1.00703e-06
1.83615e-06
8.33372e-05
8.64711e-05
-2.13458e-05
-8.74912e-05
8.55742e-05
-1.89734e-05
8.48033e-05
-1.65441e-05
8.41607e-05
-1.4063e-05
8.36487e-05
-1.15346e-05
8.32691e-05
-8.96301e-06
8.30238e-05
-6.3529e-06
8.29142e-05
-3.7088e-06
8.29417e-05
-1.03453e-06
1.66997e-06
8.31078e-05
8.63491e-05
-2.03178e-05
-8.7377e-05
8.54437e-05
-1.8068e-05
8.46637e-05
-1.57642e-05
8.40116e-05
-1.34109e-05
8.34895e-05
-1.10125e-05
8.30995e-05
-8.57297e-06
8.28432e-05
-6.09664e-06
8.27222e-05
-3.58785e-06
8.2738e-05
-1.05028e-06
1.51598e-06
8.2892e-05
8.62329e-05
-1.92827e-05
-8.72681e-05
8.53198e-05
-1.71549e-05
8.45316e-05
-1.49759e-05
8.38707e-05
-1.275e-05
8.33394e-05
-1.04812e-05
8.29397e-05
-8.17324e-06
8.26733e-05
-5.83026e-06
8.25418e-05
-3.45638e-06
8.25467e-05
-1.05511e-06
1.37333e-06
8.26893e-05
8.61229e-05
-1.8241e-05
-8.71646e-05
8.52027e-05
-1.62348e-05
8.4407e-05
-1.41802e-05
8.37381e-05
-1.20811e-05
8.31983e-05
-9.94142e-06
8.27896e-05
-7.7646e-06
8.25139e-05
-5.55455e-06
8.23727e-05
-3.31517e-06
8.23674e-05
-1.04979e-06
1.24124e-06
8.24995e-05
8.60191e-05
-1.71933e-05
-8.70667e-05
8.50925e-05
-1.53082e-05
8.42899e-05
-1.33775e-05
8.36136e-05
-1.14049e-05
8.30661e-05
-9.39384e-06
8.26492e-05
-7.34774e-06
8.23649e-05
-5.27022e-06
8.22146e-05
-3.16494e-06
8.21999e-05
-1.03508e-06
1.11894e-06
8.23222e-05
8.59217e-05
-1.61404e-05
-8.69746e-05
8.49893e-05
-1.43759e-05
8.41804e-05
-1.25686e-05
8.34974e-05
-1.07219e-05
8.29427e-05
-8.83912e-06
8.25182e-05
-6.92332e-06
8.22259e-05
-4.97792e-06
8.20674e-05
-3.00637e-06
8.20439e-05
-1.01165e-06
1.00575e-06
8.21571e-05
8.58306e-05
-1.50826e-05
-8.68884e-05
8.4893e-05
-1.34382e-05
8.40783e-05
-1.17539e-05
8.33892e-05
-1.00328e-05
8.28279e-05
-8.27783e-06
8.23966e-05
-6.49194e-06
8.20969e-05
-4.67829e-06
8.19307e-05
-2.84011e-06
8.18992e-05
-9.80168e-07
9.00967e-07
8.2004e-05
8.57461e-05
-1.40204e-05
-8.68082e-05
8.48037e-05
-1.24958e-05
8.39838e-05
-1.09341e-05
8.32891e-05
-9.33809e-06
8.27218e-05
-7.71055e-06
8.22841e-05
-6.05419e-06
8.19777e-05
-4.37192e-06
8.18043e-05
-2.66674e-06
8.17654e-05
-9.41252e-07
8.03971e-07
8.18624e-05
8.5668e-05
-1.29544e-05
-8.6734e-05
8.47213e-05
-1.15491e-05
8.38967e-05
-1.01095e-05
8.31969e-05
-8.63827e-06
8.26242e-05
-7.13779e-06
8.21806e-05
-5.61059e-06
8.1868e-05
-4.05937e-06
8.16881e-05
-2.48686e-06
8.16424e-05
-8.95494e-07
7.14145e-07
8.17322e-05
8.55964e-05
-1.18849e-05
-8.66659e-05
8.46458e-05
-1.05985e-05
8.3817e-05
-9.28073e-06
8.31126e-05
-7.93383e-06
8.25348e-05
-6.56005e-06
8.20859e-05
-5.16167e-06
8.17677e-05
-3.74115e-06
8.15819e-05
-2.30101e-06
8.15298e-05
-8.43456e-07
6.30906e-07
8.16131e-05
8.55312e-05
-1.08123e-05
-8.66038e-05
8.45772e-05
-9.64447e-06
8.37446e-05
-8.44812e-06
8.3036e-05
-7.22523e-06
8.24537e-05
-5.9778e-06
8.2e-05
-4.70791e-06
8.16766e-05
-3.41778e-06
8.14853e-05
-2.10969e-06
8.14275e-05
-7.85675e-07
5.53692e-07
8.15047e-05
8.54724e-05
-9.73703e-06
-8.65477e-05
8.45154e-05
-8.68742e-06
8.36794e-05
-7.61213e-06
8.2967e-05
-6.5129e-06
8.23807e-05
-5.39149e-06
8.19226e-05
-4.24978e-06
8.15945e-05
-3.08974e-06
8.13983e-05
-1.91342e-06
8.13353e-05
-7.22671e-07
4.81966e-07
8.1407e-05
8.54199e-05
-8.65943e-06
-8.64975e-05
8.44602e-05
-7.72771e-06
8.36212e-05
-6.77316e-06
8.29056e-05
-5.79726e-06
8.23157e-05
-4.80156e-06
8.18536e-05
-3.78772e-06
8.15214e-05
-2.75748e-06
8.13206e-05
-1.71268e-06
8.12529e-05
-6.54943e-07
4.15205e-07
8.13196e-05
8.53736e-05
-7.57988e-06
-8.64532e-05
8.44117e-05
-6.76575e-06
8.35701e-05
-5.93161e-06
8.28516e-05
-5.07872e-06
8.22584e-05
-4.20843e-06
8.17929e-05
-3.32217e-06
8.14569e-05
-2.42146e-06
8.12521e-05
-1.50792e-06
8.11801e-05
-5.82975e-07
3.529e-07
8.12424e-05
8.53335e-05
-6.49877e-06
-8.64146e-05
8.43696e-05
-5.80191e-06
8.35259e-05
-5.08786e-06
8.28048e-05
-4.35767e-06
8.22089e-05
-3.61249e-06
8.17403e-05
-2.85354e-06
8.14009e-05
-2.08212e-06
8.11926e-05
-1.29961e-06
8.11169e-05
-5.07241e-07
2.94553e-07
8.11752e-05
8.52993e-05
-5.41647e-06
-8.63816e-05
8.4334e-05
-4.83657e-06
8.34885e-05
-4.2423e-06
8.27653e-05
-3.63452e-06
8.2167e-05
-3.01416e-06
8.16957e-05
-2.38225e-06
8.13534e-05
-1.73987e-06
8.1142e-05
-1.08818e-06
8.1063e-05
-4.28208e-07
2.39676e-07
8.11178e-05
8.52712e-05
-4.33336e-06
-8.63543e-05
8.43047e-05
-3.87011e-06
8.34577e-05
-3.39531e-06
8.27328e-05
-2.90963e-06
8.21325e-05
-2.41382e-06
8.16589e-05
-1.9087e-06
8.13142e-05
-1.39515e-06
8.11001e-05
-8.74085e-07
8.10182e-05
-3.46339e-07
1.87779e-07
8.10701e-05
8.52489e-05
-3.24982e-06
-8.63324e-05
8.42817e-05
-2.90289e-06
8.34336e-05
-2.54724e-06
8.27073e-05
-2.18337e-06
8.21054e-05
-1.81185e-06
8.163e-05
-1.43329e-06
8.12832e-05
-1.04836e-06
8.10668e-05
-6.57757e-07
8.09826e-05
-2.62099e-07
1.3837e-07
8.1032e-05
8.52324e-05
-2.16621e-06
-8.6316e-05
8.42648e-05
-1.93526e-06
8.3416e-05
-1.69845e-06
8.26887e-05
-1.4561e-06
8.20855e-05
-1.20862e-06
8.16086e-05
-9.5642e-07
8.12602e-05
-6.99941e-07
8.10421e-05
-4.39649e-07
8.0956e-05
-1.75962e-07
9.0949e-08
8.10034e-05
8.52217e-05
-1.08284e-06
-8.63051e-05
8.4254e-05
-9.67535e-07
8.34048e-05
-8.49256e-07
8.26769e-05
-7.28187e-07
8.20728e-05
-6.04535e-07
8.15949e-05
-4.78507e-07
8.12453e-05
-3.50328e-07
8.10259e-05
-2.2023e-07
8.09383e-05
-8.84216e-08
4.50037e-08
8.09843e-05
8.52167e-05
-8.62995e-05
8.42492e-05
8.33999e-05
8.26717e-05
8.20672e-05
8.15887e-05
8.12384e-05
8.10181e-05
8.09297e-05
8.09747e-05
8.53874e-05
4.4621e-06
8.4058e-05
1.20057e-06
8.34223e-05
1.93048e-06
8.36608e-05
3.99279e-06
8.3729e-05
4.87556e-06
8.36188e-05
5.48877e-06
8.34963e-05
6.30228e-06
8.3381e-05
7.20166e-06
8.32581e-05
8.12752e-06
8.31303e-05
9.10585e-06
8.30076e-05
1.01585e-05
8.28997e-05
1.12947e-05
8.28173e-05
1.25232e-05
8.27729e-05
1.38535e-05
8.27822e-05
1.52948e-05
8.28642e-05
1.68539e-05
8.30422e-05
1.85329e-05
8.3349e-05
2.03207e-05
8.38517e-05
2.21681e-05
2.39094e-05
8.49788e-05
2.48804e-06
8.42653e-05
1.91412e-06
8.37263e-05
2.46943e-06
8.38149e-05
3.90418e-06
8.38548e-05
4.83568e-06
8.37778e-05
5.56575e-06
8.36905e-05
6.38959e-06
8.36121e-05
7.28002e-06
8.35341e-05
8.20551e-06
8.34593e-05
9.1807e-06
8.33964e-05
1.02214e-05
8.33549e-05
1.13362e-05
8.33454e-05
1.25326e-05
8.33808e-05
1.38181e-05
8.34769e-05
1.51988e-05
8.36526e-05
1.66782e-05
8.39316e-05
1.82539e-05
8.43437e-05
1.99086e-05
8.49252e-05
2.15866e-05
2.31453e-05
8.3986e-05
1.55182e-06
8.39339e-05
1.96622e-06
8.37212e-05
2.68215e-06
8.37818e-05
3.84357e-06
8.38416e-05
4.77585e-06
8.38285e-05
5.57882e-06
8.37973e-05
6.42085e-06
8.37685e-05
7.30884e-06
8.37423e-05
8.23162e-06
8.37235e-05
9.19952e-06
8.37205e-05
1.02244e-05
8.37429e-05
1.13138e-05
8.38013e-05
1.24742e-05
8.39085e-05
1.37109e-05
8.40793e-05
1.50279e-05
8.43317e-05
1.64259e-05
8.46861e-05
1.78995e-05
8.51651e-05
1.94296e-05
8.57892e-05
2.09625e-05
2.2362e-05
8.35266e-05
1.10008e-06
8.35974e-05
1.89539e-06
8.35691e-05
2.71041e-06
8.36653e-05
3.74741e-06
8.37606e-05
4.68057e-06
8.3808e-05
5.53142e-06
8.3836e-05
6.39284e-06
8.38617e-05
7.28315e-06
8.38902e-05
8.20317e-06
8.39278e-05
9.16189e-06
8.39833e-05
1.01689e-05
8.40663e-05
1.12309e-05
8.41874e-05
1.23531e-05
8.43587e-05
1.35396e-05
8.45941e-05
1.47924e-05
8.49097e-05
1.61104e-05
8.53227e-05
1.74864e-05
8.58511e-05
1.89012e-05
8.65094e-05
2.03042e-05
2.15673e-05
8.32954e-05
8.97729e-07
8.33786e-05
1.8122e-06
8.34298e-05
2.6592e-06
8.35446e-05
3.6326e-06
8.36635e-05
4.56172e-06
8.37562e-05
5.43869e-06
8.38348e-05
6.31427e-06
8.39108e-05
7.20715e-06
8.39906e-05
8.12337e-06
8.40812e-05
9.07124e-06
8.41912e-05
1.00589e-05
8.43299e-05
1.10922e-05
8.45074e-05
1.21756e-05
8.47353e-05
1.33118e-05
8.50261e-05
1.45016e-05
8.53939e-05
1.57426e-05
8.58534e-05
1.70269e-05
8.64189e-05
1.83357e-05
8.71009e-05
1.96222e-05
2.07671e-05
8.31933e-05
8.12787e-07
8.32611e-05
1.7444e-06
8.33354e-05
2.58484e-06
8.34522e-05
3.51581e-06
8.35811e-05
4.43282e-06
8.3702e-05
5.31784e-06
8.38176e-05
6.19866e-06
8.39345e-05
7.09023e-06
8.40582e-05
7.99965e-06
8.41953e-05
8.93424e-06
8.43533e-05
9.9008e-06
8.4541e-05
1.09045e-05
8.47679e-05
1.19487e-05
8.50443e-05
1.30354e-05
8.53817e-05
1.41643e-05
8.57921e-05
1.53322e-05
8.62879e-05
1.6531e-05
8.68808e-05
1.77429e-05
8.75784e-05
1.89246e-05
1.99647e-05
8.31585e-05
7.76846e-07
8.32097e-05
1.69318e-06
8.32845e-05
2.51005e-06
8.33952e-05
3.4051e-06
8.35251e-05
4.30291e-06
8.36606e-05
5.18231e-06
8.38005e-05
6.05878e-06
8.39477e-05
6.94305e-06
8.41061e-05
7.8412e-06
8.42812e-05
8.75922e-06
8.44794e-05
9.70258e-06
8.47084e-05
1.06754e-05
8.49768e-05
1.16804e-05
8.52936e-05
1.27185e-05
8.5669e-05
1.37889e-05
8.61132e-05
1.48879e-05
8.66368e-05
1.60075e-05
8.72489e-05
1.71307e-05
8.79557e-05
1.82178e-05
1.91643e-05
8.31547e-05
7.58573e-07
8.3196e-05
1.65188e-06
8.32657e-05
2.44033e-06
8.33685e-05
3.30228e-06
8.34952e-05
4.17621e-06
8.3637e-05
5.04051e-06
8.37914e-05
5.90433e-06
8.39595e-05
6.775e-06
8.41437e-05
7.65698e-06
8.43482e-05
8.55473e-06
8.45784e-05
9.4724e-06
8.48407e-05
1.04131e-05
8.51425e-05
1.13786e-05
8.54917e-05
1.23693e-05
8.5897e-05
1.33836e-05
8.63671e-05
1.44178e-05
8.69107e-05
1.54639e-05
8.75353e-05
1.65061e-05
8.82456e-05
1.75075e-05
1.83706e-05
8.31639e-05
7.44811e-07
8.32014e-05
1.61434e-06
8.32669e-05
2.37482e-06
8.33633e-05
3.20586e-06
8.34861e-05
4.05348e-06
8.36299e-05
4.89671e-06
8.37926e-05
5.74164e-06
8.39743e-05
6.59328e-06
8.41767e-05
7.45455e-06
8.4403e-05
8.32849e-06
8.46574e-05
9.218e-06
8.49453e-05
1.01252e-05
8.52729e-05
1.1051e-05
8.56469e-05
1.19952e-05
8.60745e-05
1.2956e-05
8.65632e-05
1.39291e-05
8.71201e-05
1.49071e-05
8.77511e-05
1.58751e-05
8.84597e-05
1.67989e-05
1.75873e-05
8.31779e-05
7.30604e-07
8.32154e-05
1.57681e-06
8.3279e-05
2.31126e-06
8.33715e-05
3.11336e-06
8.34912e-05
3.93375e-06
8.36354e-05
4.7525e-06
8.38027e-05
5.57434e-06
8.39931e-05
6.40286e-06
8.42079e-05
7.23974e-06
8.44495e-05
8.08687e-06
8.47215e-05
8.94608e-06
8.50281e-05
9.81856e-06
8.53745e-05
1.07046e-05
8.57663e-05
1.16034e-05
8.62096e-05
1.25127e-05
8.67104e-05
1.34283e-05
8.72745e-05
1.4343e-05
8.79067e-05
1.52429e-05
8.86093e-05
1.60963e-05
1.6818e-05
8.31931e-05
7.14502e-07
8.32324e-05
1.53756e-06
8.32959e-05
2.24778e-06
8.33867e-05
3.02253e-06
8.35048e-05
3.81559e-06
8.36492e-05
4.60815e-06
8.38192e-05
5.40435e-06
8.40151e-05
6.20696e-06
8.4238e-05
7.01679e-06
8.44901e-05
7.83486e-06
8.4774e-05
8.66213e-06
8.50935e-05
9.49907e-06
8.54528e-05
1.03454e-05
8.58564e-05
1.11997e-05
8.63094e-05
1.20597e-05
8.68167e-05
1.2921e-05
8.73828e-05
1.37768e-05
8.80116e-05
1.46141e-05
8.87044e-05
1.54035e-05
1.60655e-05
8.32082e-05
6.96429e-07
8.32497e-05
1.49607e-06
8.33142e-05
2.18326e-06
8.34049e-05
2.93179e-06
8.35227e-05
3.69779e-06
8.36675e-05
4.46341e-06
8.38392e-05
5.23259e-06
8.40386e-05
6.00759e-06
8.42667e-05
6.78866e-06
8.45254e-05
7.57617e-06
8.48171e-05
8.37047e-06
8.51447e-05
9.17143e-06
8.55118e-05
9.97826e-06
8.59222e-05
1.07894e-05
8.63798e-05
1.1602e-05
8.68888e-05
1.24121e-05
8.74526e-05
1.3213e-05
8.80741e-05
1.39926e-05
8.87539e-05
1.47237e-05
1.53321e-05
8.32225e-05
6.7674e-07
8.32662e-05
1.45244e-06
8.33322e-05
2.11722e-06
8.34237e-05
2.84027e-06
8.3542e-05
3.57953e-06
8.36874e-05
4.31803e-06
8.38604e-05
5.05955e-06
8.40619e-05
5.80605e-06
8.42932e-05
6.55742e-06
8.45558e-05
7.31359e-06
8.48518e-05
8.07442e-06
8.51839e-05
8.83938e-06
8.55548e-05
9.60733e-06
8.59677e-05
1.03764e-05
8.6426e-05
1.11438e-05
8.69326e-05
1.19055e-05
8.74904e-05
1.26551e-05
8.81016e-05
1.33815e-05
8.87659e-05
1.40593e-05
1.46195e-05
8.32361e-05
6.5586e-07
8.32815e-05
1.40703e-06
8.33491e-05
2.04965e-06
8.34417e-05
2.74762e-06
8.35608e-05
3.46045e-06
8.3707e-05
4.17189e-06
8.38809e-05
4.88559e-06
8.40837e-05
5.60327e-06
8.43166e-05
6.32458e-06
8.4581e-05
7.04914e-06
8.48789e-05
7.7765e-06
8.52125e-05
8.50582e-06
8.55841e-05
9.23572e-06
8.59963e-05
9.96417e-06
8.64518e-05
1.06884e-05
8.6953e-05
1.14043e-05
8.7502e-05
1.21061e-05
8.81003e-05
1.27832e-05
8.87472e-05
1.34123e-05
1.39291e-05
8.32489e-05
6.34159e-07
8.32957e-05
1.36027e-06
8.33646e-05
1.98077e-06
8.34583e-05
2.65387e-06
8.35783e-05
3.34053e-06
8.37251e-05
4.0251e-06
8.38996e-05
4.71107e-06
8.41029e-05
5.39996e-06
8.43362e-05
6.09125e-06
8.4601e-05
6.78437e-06
8.48989e-05
7.47862e-06
8.52317e-05
8.17297e-06
8.56016e-05
8.86586e-06
8.60105e-05
9.55522e-06
8.64607e-05
1.02382e-05
8.69539e-05
1.0911e-05
8.74919e-05
1.15681e-05
8.80755e-05
1.21997e-05
8.87037e-05
1.27841e-05
1.32617e-05
8.32611e-05
6.1193e-07
8.33088e-05