/*--------------------------------*- C++ -*----------------------------------*\
  =========                 |
  \\      /  F ield         | OpenFOAM: The Open Source CFD Toolbox
   \\    /   O peration     | Website:  https://openfoam.org
    \\  /    A nd           | Version:  6
     \\/     M anipulation  |
\*---------------------------------------------------------------------------*/
FoamFile
{
    version     2.0;
    format      ascii;
    class       surfaceScalarField;
    location    "0.85";
    object      phi;
}
// * * * * * * * * * * * * * * * * * * * * * * * * * * * * * * * * * * * * * //

dimensions      [0 3 -1 0 0 0 0];

internalField   nonuniform List<scalar> 
11030
(
0.000117207
2.24161e-07
0.000117312
-1.04173e-07
0.000117213
9.8051e-08
0.000116902
3.11104e-07
0.000116589
3.13506e-07
0.000116275
3.14055e-07
0.000115904
3.70472e-07
0.000115457
4.47577e-07
0.000114927
5.3022e-07
0.000114304
6.22344e-07
0.000113576
7.27887e-07
0.000112728
8.48287e-07
0.000111743
9.84983e-07
0.000110603
1.14013e-06
0.000109287
1.31625e-06
0.000107771
1.51589e-06
0.00010603
1.74083e-06
0.000104039
1.99051e-06
0.000101781
2.25892e-06
2.52502e-06
9.92555e-05
0.000117734
-8.78493e-08
0.000117514
1.16165e-07
0.000117133
4.79061e-07
0.000116806
6.37981e-07
0.00011648
6.39154e-07
0.000116107
6.87277e-07
0.000115672
8.05372e-07
0.000115168
9.51891e-07
0.000114583
1.11491e-06
0.000113905
1.3005e-06
0.000113119
1.51347e-06
0.000112211
1.75632e-06
0.000111164
2.03216e-06
0.000109959
2.34523e-06
0.000108575
2.70044e-06
0.000106988
3.10267e-06
0.000105174
3.55532e-06
0.000103107
4.05711e-06
0.00010077
4.59589e-06
5.13404e-06
9.81611e-05
0.000117457
-1.64829e-07
0.000117358
2.1551e-07
0.000117053
7.83397e-07
0.000116694
9.97297e-07
0.000116323
1.01045e-06
0.000115909
1.10143e-06
0.00011543
1.28445e-06
0.000114876
1.50501e-06
0.00011424
1.75148e-06
0.000113508
2.03279e-06
0.000112666
2.35515e-06
0.0001117
2.72212e-06
0.000110594
3.13834e-06
0.000109329
3.61006e-06
0.000107885
4.14445e-06
0.000106239
4.74858e-06
0.000104367
5.42745e-06
0.000102245
6.17921e-06
9.98546e-05
6.98617e-06
7.79693e-06
9.71918e-05
0.000117332
-1.6477e-07
0.000117193
3.54227e-07
0.000116889
1.08688e-06
0.00011652
1.36613e-06
0.000116126
1.40486e-06
0.000115682
1.54546e-06
0.000115167
1.79926e-06
0.000114573
2.09953e-06
0.00011389
2.43405e-06
0.000113108
2.81447e-06
0.000112215
3.24845e-06
0.000111197
3.74061e-06
0.000110038
4.29701e-06
0.000108722
4.92577e-06
0.000107231
5.63611e-06
0.000105542
6.43717e-06
0.000103634
7.3354e-06
0.000101485
8.32847e-06
9.90774e-05
9.39355e-06
1.04679e-05
9.64065e-05
0.000117209
-9.35503e-08
0.000117016
5.47333e-07
0.000116697
1.40561e-06
0.000116319
1.7447e-06
0.000115907
1.81673e-06
0.000115438
2.01479e-06
0.000114891
2.34621e-06
0.000114258
2.73228e-06
0.000113532
3.15979e-06
0.000112704
3.64272e-06
0.000111762
4.19e-06
0.000110696
4.80711e-06
0.000109491
5.50143e-06
0.000108135
6.28272e-06
0.000106609
7.16198e-06
0.000104896
8.15009e-06
0.000102976
9.25475e-06
0.000100832
1.04731e-05
9.84479e-05
1.17774e-05
1.3096e-05
9.58198e-05
0.000117072
6.10938e-08
0.000116822
7.9725e-07
0.000116494
1.73318e-06
0.000116111
2.12748e-06
0.000115684
2.24387e-06
0.000115189
2.50974e-06
0.000114608
2.92697e-06
0.000113935
3.40548e-06
0.000113164
3.93078e-06
0.000112288
4.51881e-06
0.000111299
5.17959e-06
0.000110186
5.91936e-06
0.000108941
6.74662e-06
0.000107551
7.67252e-06
0.000106004
8.7095e-06
0.000104284
9.86977e-06
0.000102377
1.11619e-05
0.000100268
1.25825e-05
9.79454e-05
1.40995e-05
1.56349e-05
9.54065e-05
0.000116889
3.39814e-07
0.000116589
1.09802e-06
0.000116289
2.03259e-06
0.000115918
2.49846e-06
0.000115474
2.6884e-06
0.000114946
3.03711e-06
0.000114324
3.54938e-06
0.000113602
4.12725e-06
0.000112779
4.7543e-06
0.000111849
5.44823e-06
0.000110809
6.22031e-06
0.00010965
7.07764e-06
0.000108367
8.02969e-06
0.000106951
9.08871e-06
0.000105392
1.02681e-05
0.000103681
1.15809e-05
0.000101807
1.30362e-05
9.97592e-05
1.46303e-05
9.75309e-05
1.63278e-05
1.80483e-05
9.51175e-05
0.000116585
8.61699e-07
0.000116266
1.41677e-06
0.000116096
2.20304e-06
0.000115761
2.83331e-06
0.000115283
3.16595e-06
0.000114707
3.61348e-06
0.000114029
4.2278e-06
0.000113245
4.91104e-06
0.000112357
5.64164e-06
0.000111366
6.43919e-06
0.00011027
7.31718e-06
0.000109063
8.28377e-06
0.000107744
9.34925e-06
0.000106306
1.05265e-05
0.000104745
1.18294e-05
0.000103055
1.3271e-05
0.00010123
1.48608e-05
9.92655e-05
1.65949e-05
9.71558e-05
1.84375e-05
2.03137e-05
9.48904e-05
0.000115866
2.04363e-06
0.000115804
1.47925e-06
0.000115986
2.02064e-06
0.000115664
3.15487e-06
0.000115101
3.72881e-06
0.000114449
4.26565e-06
0.000113696
4.98148e-06
0.000112833
5.77374e-06
0.000111869
6.60584e-06
0.000110807
7.50079e-06
0.000109648
8.47613e-06
0.000108391
9.54122e-06
0.000107033
1.07066e-05
0.000105575
1.19852e-05
0.000104014
1.33902e-05
0.000102351
1.49341e-05
0.000100586
1.66257e-05
9.87184e-05
1.84624e-05
9.67464e-05
2.04095e-05
2.23937e-05
9.46664e-05
0.000114567
4.51397e-06
0.000115667
3.79562e-07
0.00011615
1.53801e-06
0.000115621
3.68327e-06
0.000114904
4.44567e-06
0.000114147
5.02288e-06
0.000113294
5.83415e-06
0.000112339
6.72959e-06
0.00011129
7.65397e-06
0.000110155
8.63656e-06
0.000108932
9.69905e-06
0.000107622
1.08513e-05
0.000106225
1.21034e-05
0.000104743
1.34669e-05
0.00010318
1.49534e-05
0.000101541
1.65727e-05
9.98367e-05
1.83304e-05
9.8075e-05
2.02242e-05
9.62456e-05
2.22389e-05
9.43355e-05
2.43038e-05
8.88128e-05
1.04426e-05
7.82266e-05
1.05863e-05
6.74825e-05
1.0744e-05
5.65759e-05
1.09066e-05
4.55216e-05
1.10543e-05
3.43933e-05
1.11283e-05
2.34058e-05
1.09874e-05
1.30767e-05
1.03291e-05
4.49503e-06
8.58171e-06
4.49503e-06
8.78056e-05
2.07982e-05
7.73008e-05
2.1091e-05
6.66414e-05
2.14034e-05
5.58253e-05
2.17228e-05
4.48711e-05
2.20085e-05
3.38576e-05
2.21418e-05
2.3002e-05
2.1843e-05
1.28193e-05
2.05119e-05
4.43385e-06
1.69671e-05
8.92887e-06
8.6919e-05
3.10709e-05
7.64931e-05
3.1517e-05
6.59142e-05
3.19823e-05
5.51825e-05
3.24545e-05
4.43189e-05
3.28721e-05
3.34055e-05
3.30551e-05
2.26641e-05
3.25845e-05
1.26129e-05
3.0563e-05
4.35056e-06
2.52295e-05
1.32794e-05
8.61989e-05
4.12785e-05
7.58369e-05
4.1879e-05
6.53249e-05
4.24943e-05
5.46633e-05
4.31161e-05
4.38737e-05
4.36617e-05
3.30404e-05
4.38885e-05
2.23889e-05
4.32359e-05
1.24404e-05
4.05115e-05
4.282e-06
3.33879e-05
1.75614e-05
8.56584e-05
5.14399e-05
7.53417e-05
5.21957e-05
6.48784e-05
5.29576e-05
5.42679e-05
5.37266e-05
4.35309e-05
5.43987e-05
3.27537e-05
5.46657e-05
2.21661e-05
5.38235e-05
1.22948e-05
5.03828e-05
4.22157e-06
4.14611e-05
2.1783e-05
8.52746e-05
6.15718e-05
7.49854e-05
6.2485e-05
6.45527e-05
6.33903e-05
5.3973e-05
6.43064e-05
4.32659e-05
6.51057e-05
3.25204e-05
6.54112e-05
2.19729e-05
6.4371e-05
1.21587e-05
6.01971e-05
4.16028e-06
4.94595e-05
2.59433e-05
8.49989e-05
7.16903e-05
7.47206e-05
7.27633e-05
6.43013e-05
7.38096e-05
5.37321e-05
7.48755e-05
4.30327e-05
7.58052e-05
3.22968e-05
7.6147e-05
2.17714e-05
7.48964e-05
1.20049e-05
6.99635e-05
4.08444e-06
5.738e-05
3.00277e-05
8.4761e-05
8.18197e-05
7.44746e-05
8.30497e-05
6.40515e-05
8.42327e-05
5.34726e-05
8.54545e-05
4.27608e-05
8.65169e-05
3.2019e-05
8.68888e-05
2.15092e-05
8.54063e-05
1.17971e-05
7.96755e-05
3.97616e-06
6.5201e-05
3.40039e-05
8.44525e-05
9.20336e-05
7.41327e-05
9.33696e-05
6.36859e-05
9.46795e-05
5.30797e-05
9.60606e-05
4.2347e-05
9.72497e-05
3.16009e-05
9.76349e-05
2.11208e-05
9.58864e-05
1.14899e-05
8.93065e-05
3.81026e-06
7.28807e-05
3.78141e-05
8.38236e-05
0.000102546
7.34807e-05
0.000103712
6.29946e-05
0.000105166
5.23681e-05
0.000106687
4.16405e-05
0.000107977
3.09289e-05
0.000108346
2.05241e-05
0.000106291
1.10192e-05
9.88114e-05
3.53551e-06
8.03643e-05
4.13496e-05
3.19937e-05
0.000108064
-3.75126e-05
2.6507e-05
0.000109199
2.11102e-05
0.000110562
1.58532e-05
0.000111944
1.08861e-05
0.000112944
6.46948e-06
0.000112763
2.96264e-06
0.000109798
7.30035e-07
0.000101044
-9.37677e-08
8.11881e-05
4.12559e-05
2.59047e-05
0.000113022
-3.08628e-05
2.09402e-05
0.000114164
1.60753e-05
0.000115427
1.1422e-05
0.000116597
7.14795e-06
0.000117218
3.51252e-06
0.000116398
8.45453e-07
0.000112465
-5.49672e-07
0.000102439
-6.27036e-07
8.12655e-05
4.06288e-05
1.98422e-05
0.00011745
-2.42701e-05
1.54181e-05
0.000118588
1.11249e-05
0.00011972
7.10226e-06
0.00012062
3.54067e-06
0.00012078
7.00147e-07
0.000119239
-1.1187e-06
0.000114284
-1.67878e-06
0.000102999
-1.04208e-06
8.06288e-05
3.95868e-05
1.38651e-05
0.000121354
-1.77686e-05
1.00007e-05
0.000122452
6.30478e-06
0.000123416
2.93729e-06
0.000123988
1.05482e-07
0.000123612
-1.93297e-06
0.000121277
-2.90976e-06
0.000115261
-2.66135e-06
0.000102751
-1.37204e-06
7.93395e-05
3.82147e-05
8.01733e-06
0.000124731
-1.13944e-05
4.72314e-06
0.000125746
1.64441e-06
0.000126495
-1.04619e-06
0.000126678
-3.13272e-06
0.000125698
-4.36673e-06
0.000122511
-4.51892e-06
0.000115413
-3.50537e-06
0.000101737
-1.63259e-06
7.74667e-05
3.65821e-05
2.32848e-06
0.000127578
-5.17599e-06
-3.87071e-07
0.000128462
-2.83304e-06
0.000128941
-4.82944e-06
0.000128675
-6.15951e-06
0.000127028
-6.59216e-06
0.000122944
-5.94488e-06
0.000114766
-4.2177e-06
0.00010001
-1.83239e-06
7.50814e-05
3.47498e-05
-3.18143e-06
0.000129891
8.68508e-07
-5.30985e-06
0.00013059
-7.10976e-06
0.000130741
-8.39832e-06
0.000129963
-8.96537e-06
0.000127596
-8.6055e-06
0.000122584
-7.1904e-06
0.000113351
-4.80635e-06
9.7626e-05
-1.97963e-06
7.22547e-05
3.27701e-05
-8.5011e-06
0.000131663
6.72958e-06
-1.00322e-05
0.000132122
-1.1173e-05
0.000131882
-1.17421e-05
0.000130532
-1.15431e-05
0.000127397
-1.04045e-05
0.000121446
-8.25908e-06
0.000111205
-5.27935e-06
9.46463e-05
-2.08164e-06
6.9057e-05
3.06885e-05
-1.36245e-05
0.000132884
1.24033e-05
-1.45446e-05
0.000133042
-1.501e-05
0.000132347
-1.48466e-05
0.000130369
-1.38796e-05
0.000126429
-1.19809e-05
0.000119547
-9.15053e-06
0.000108375
-5.64385e-06
9.11396e-05
-2.14617e-06
6.55593e-05
2.85423e-05
-1.85412e-05
1.78937e-05
0.000133532
-1.88203e-05
0.000133321
-1.85811e-05
0.000132108
-1.76657e-05
0.000129453
-1.5932e-05
0.000124696
-1.33055e-05
0.00011692
-9.85651e-06
0.000104926
-5.91064e-06
8.71937e-05
-2.19033e-06
6.1839e-05
2.6352e-05
8.29065e-05
-3.81186e-05
-8.23005e-05
8.37343e-05
-3.16905e-05
8.47568e-05
-2.52927e-05
8.59177e-05
-1.89295e-05
8.71752e-05
-1.26519e-05
8.84814e-05
-6.48216e-06
8.97853e-05
-4.35349e-07
9.10363e-05
5.47854e-06
9.2187e-05
1.12526e-05
1.68984e-05
9.31822e-05
8.36524e-05
-3.85481e-05
-8.3223e-05
8.42748e-05
-3.23129e-05
8.50922e-05
-2.611e-05
8.60612e-05
-1.98985e-05
8.71441e-05
-1.37348e-05
8.82998e-05
-7.63783e-06
8.94848e-05
-1.62038e-06
9.06559e-05
4.30739e-06
9.17716e-05
1.01369e-05
1.58838e-05
9.27863e-05
8.42859e-05
-3.87749e-05
-8.40591e-05
8.47232e-05
-3.27502e-05
8.53511e-05
-2.67379e-05
8.61386e-05
-2.06861e-05
8.70528e-05
-1.46489e-05
8.80592e-05
-8.64428e-06
8.91219e-05
-2.68304e-06
9.02047e-05
3.22459e-06
9.12724e-05
9.0692e-06
1.48676e-05
9.22886e-05
8.48339e-05
-3.88529e-05
-8.47558e-05
8.51102e-05
-3.30265e-05
8.5568e-05
-2.71957e-05
8.61862e-05
-2.13042e-05
8.69387e-05
-1.54015e-05
8.77984e-05
-9.50399e-06
8.87365e-05
-3.62109e-06
8.97238e-05
2.23733e-06
9.07312e-05
8.06177e-06
1.38687e-05
9.17301e-05
8.5289e-05
-3.88126e-05
-8.53293e-05
8.54302e-05
-3.31678e-05
8.57401e-05
-2.75055e-05
8.62062e-05
-2.17703e-05
8.68101e-05
-1.60054e-05
8.75311e-05
-1.02251e-05
8.83475e-05
-4.43741e-06
8.92364e-05
1.34835e-06
9.01749e-05
7.12329e-06
1.29032e-05
9.11404e-05
8.56515e-05
-3.86686e-05
-8.57955e-05
8.56763e-05
-3.31926e-05
8.58587e-05
-2.76879e-05
8.61922e-05
-2.21038e-05
8.66639e-05
-1.6477e-05
8.72589e-05
-1.08201e-05
8.79614e-05
-5.13982e-06
8.87542e-05
5.55486e-07
8.96198e-05
6.25776e-06
1.19821e-05
9.05408e-05
8.59292e-05
-3.84316e-05
-8.61661e-05
8.58519e-05
-3.31153e-05
8.59242e-05
-2.77602e-05
8.61427e-05
-2.23224e-05
8.64987e-05
-1.6833e-05
8.69817e-05
-1.13031e-05
8.75803e-05
-5.73847e-06
8.82825e-05
-1.46634e-07
8.90749e-05
5.46535e-06
1.1112e-05
8.9945e-05
8.61319e-05
-3.81112e-05
-8.64523e-05
8.59643e-05
-3.29478e-05
8.59407e-05
-2.77366e-05
8.60596e-05
-2.24412e-05
8.63148e-05
-1.70883e-05
8.66992e-05
-1.16875e-05
8.72048e-05
-6.24409e-06
8.78232e-05
-7.65022e-07
8.85449e-05
4.74359e-06
1.02957e-05
8.93612e-05
8.62692e-05
-3.77155e-05
-8.66649e-05
8.60216e-05
-3.27002e-05
8.59141e-05
-2.76291e-05
8.59462e-05
-2.24733e-05
8.61137e-05
-1.72558e-05
8.64115e-05
-1.19853e-05
8.68345e-05
-6.66702e-06
8.73767e-05
-1.30729e-06
8.80319e-05
4.08846e-06
9.53363e-06
8.8794e-05
8.63507e-05
-3.72524e-05
-8.68138e-05
8.60317e-05
-3.23812e-05
8.58503e-05
-2.74476e-05
8.58064e-05
-2.24295e-05
8.58972e-05
-1.73466e-05
8.61192e-05
-1.22073e-05
8.64689e-05
-7.01673e-06
8.69426e-05
-1.78095e-06
8.7536e-05
3.4951e-06
8.82417e-06
8.82454e-05
8.63847e-05
-3.67287e-05
-8.69084e-05
8.60021e-05
-3.19987e-05
8.57553e-05
-2.72008e-05
8.56446e-05
-2.23188e-05
8.56681e-05
-1.73701e-05
8.58233e-05
-1.23626e-05
8.61082e-05
-7.30158e-06
8.65203e-05
-2.19304e-06
8.7057e-05
2.95842e-06
8.16481e-06
8.77163e-05
8.63789e-05
-3.61507e-05
-8.69569e-05
8.59396e-05
-3.15594e-05
8.56347e-05
-2.68958e-05
8.54649e-05
-2.2149e-05
8.54289e-05
-1.73341e-05
8.55252e-05
-1.24589e-05
8.57525e-05
-7.52884e-06
8.61093e-05
-2.5499e-06
8.65943e-05
2.47348e-06
7.55245e-06
8.72066e-05
8.63402e-05
-3.5524e-05
-8.69668e-05
8.58502e-05
-3.10694e-05
8.54935e-05
-2.65392e-05
8.52711e-05
-2.19266e-05
8.51824e-05
-1.72454e-05
8.52263e-05
-1.25028e-05
8.54022e-05
-7.70475e-06
8.57095e-05
-2.85712e-06
8.61473e-05
2.03566e-06
6.98384e-06
8.67159e-05
8.62744e-05
-3.48538e-05
-8.69446e-05
8.5739e-05
-3.0534e-05
8.53361e-05
-2.61363e-05
8.50669e-05
-2.16574e-05
8.49311e-05
-1.71096e-05
8.49283e-05
-1.25e-05
8.50582e-05
-7.83467e-06
8.53207e-05
-3.11962e-06
8.57156e-05
1.64076e-06
6.45577e-06
8.62436e-05
8.61867e-05
-3.41444e-05
-8.68961e-05
8.56107e-05
-2.99579e-05
8.51664e-05
-2.5692e-05
8.48552e-05
-2.13462e-05
8.46772e-05
-1.69316e-05
8.46325e-05
-1.24553e-05
8.4721e-05
-7.92322e-06
8.49431e-05
-3.34165e-06
8.52988e-05
1.28503e-06
5.96518e-06
8.57894e-05
8.60816e-05
-3.34e-05
-8.6826e-05
8.54691e-05
-2.93453e-05
8.49876e-05
-2.52106e-05
8.46388e-05
-2.09973e-05
8.44229e-05
-1.67157e-05
8.43404e-05
-1.23727e-05
8.43915e-05
-7.97438e-06
8.45768e-05
-3.52694e-06
8.48967e-05
9.65127e-07
5.50926e-06
8.53526e-05
8.59629e-05
-3.26241e-05
-8.67388e-05
8.53175e-05
-2.87e-05
8.48027e-05
-2.46957e-05
8.44199e-05
-2.06145e-05
8.41698e-05
-1.64657e-05
8.40531e-05
-1.2256e-05
8.40703e-05
-7.9916e-06
8.42221e-05
-3.67874e-06
8.45092e-05
6.78077e-07
5.0854e-06
8.4933e-05
8.58337e-05
-3.18198e-05
-8.6638e-05
8.51589e-05
-2.80252e-05
8.4614e-05
-2.41508e-05
8.42005e-05
-2.0201e-05
8.39195e-05
-1.61847e-05
8.37718e-05
-1.21083e-05
8.37581e-05
-7.97794e-06
8.38793e-05
-3.79991e-06
8.41361e-05
4.21241e-07
4.69127e-06
8.45302e-05
8.5697e-05
-3.09901e-05
-8.65268e-05
8.49956e-05
-2.73238e-05
8.44234e-05
-2.35786e-05
8.39822e-05
-1.97598e-05
8.36732e-05
-1.58756e-05
8.34972e-05
-1.19323e-05
8.34553e-05
-7.93605e-06
8.35484e-05
-3.893e-06
8.37774e-05
1.92259e-07
4.32471e-06
8.4144e-05
8.5555e-05
-3.01373e-05
-8.64078e-05
8.48296e-05
-2.65984e-05
8.42328e-05
-2.29818e-05
8.37665e-05
-1.92935e-05
8.34319e-05
-1.5541e-05
8.32302e-05
-1.17306e-05
8.31625e-05
-7.86833e-06
8.32297e-05
-3.96026e-06
8.3433e-05
-1.09867e-08
3.98378e-06
8.37739e-05
8.54097e-05
-2.92639e-05
-8.62832e-05
8.46627e-05
-2.58514e-05
8.40436e-05
-2.23627e-05
8.35544e-05
-1.88043e-05
8.31966e-05
-1.51832e-05
8.29713e-05
-1.15054e-05
8.28799e-05
-7.7769e-06
8.29233e-05
-4.00373e-06
8.31028e-05
-1.9041e-07
3.6667e-06
8.34199e-05
8.52629e-05
-2.83717e-05
-8.61551e-05
8.44962e-05
-2.50847e-05
8.38569e-05
-2.17234e-05
8.33469e-05
-1.82943e-05
8.29678e-05
-1.48041e-05
8.2721e-05
-1.12586e-05
8.26078e-05
-7.66367e-06
8.26293e-05
-4.02522e-06
8.27866e-05
-3.47749e-07
3.37183e-06
8.30815e-05
8.51159e-05
-2.74625e-05
-8.6025e-05
8.43315e-05
-2.43003e-05
8.36738e-05
-2.10657e-05
8.31448e-05
-1.77653e-05
8.27463e-05
-1.44056e-05
8.24797e-05
-1.0992e-05
8.23464e-05
-7.53035e-06
8.23476e-05
-4.02641e-06
8.24844e-05
-4.84588e-07
3.09766e-06
8.27586e-05
8.49699e-05
-2.65381e-05
-8.58944e-05
8.41694e-05
-2.34998e-05
8.34949e-05
-2.03913e-05
8.29487e-05
-1.72191e-05
8.25324e-05
-1.39893e-05
8.22476e-05
-1.07072e-05
8.20958e-05
-7.37853e-06
8.20782e-05
-4.0088e-06
8.2196e-05
-6.02383e-07
2.84281e-06
8.24508e-05
8.4826e-05
-2.55998e-05
-8.57643e-05
8.40108e-05
-2.26846e-05
8.33211e-05
-1.97016e-05
8.27591e-05
-1.6657e-05
8.23265e-05
-1.35567e-05
8.2025e-05
-1.04057e-05
8.18561e-05
-7.20962e-06
8.1821e-05
-3.97378e-06
8.19211e-05
-7.02471e-07
2.60599e-06
8.2158e-05
8.4685e-05
-2.46489e-05
-8.56359e-05
8.38565e-05
-2.18561e-05
8.31529e-05
-1.8998e-05
8.25764e-05
-1.60805e-05
8.21288e-05
-1.31091e-05
8.18119e-05
-1.00888e-05
8.16272e-05
-7.02492e-06
8.1576e-05
-3.92262e-06
8.16597e-05
-7.8609e-07
2.38598e-06
8.18797e-05
8.45475e-05
-2.36865e-05
-8.55099e-05
8.3707e-05
-2.10156e-05
8.29906e-05
-1.82817e-05
8.24009e-05
-1.54907e-05
8.19395e-05
-1.26478e-05
8.16085e-05
-9.75773e-06
8.14092e-05
-6.82562e-06
8.1343e-05
-3.85648e-06
8.14113e-05
-8.54384e-07
2.18168e-06
8.16156e-05
8.44143e-05
-2.27138e-05
-8.5387e-05
8.35627e-05
-2.0164e-05
8.28347e-05
-1.75538e-05
8.22328e-05
-1.48888e-05
8.17589e-05
-1.21738e-05
8.14147e-05
-9.41355e-06
8.12019e-05
-6.61282e-06
8.11219e-05
-3.77646e-06
8.11759e-05
-9.08421e-07
1.99203e-06
8.13656e-05
8.42856e-05
-2.17316e-05
-8.52678e-05
8.3424e-05
-1.93023e-05
8.26855e-05
-1.68153e-05
8.20724e-05
-1.42757e-05
8.15868e-05
-1.16882e-05
8.12306e-05
-9.05731e-06
8.10053e-05
-6.38753e-06
8.09124e-05
-3.68356e-06
8.09532e-05
-9.49191e-07
1.81604e-06
8.11291e-05
8.4162e-05
-2.07409e-05
-8.51528e-05
8.32912e-05
-1.84315e-05
8.2543e-05
-1.6067e-05
8.19197e-05
-1.36524e-05
8.14235e-05
-1.1192e-05
8.10561e-05
-8.68993e-06
8.08192e-05
-6.15068e-06
8.07144e-05
-3.5787e-06
8.07428e-05
-9.7762e-07
1.65281e-06
8.0906e-05
8.40438e-05
-1.97423e-05
-8.50423e-05
8.31646e-05
-1.75524e-05
8.24076e-05
-1.531e-05
8.17749e-05
-1.30198e-05
8.12688e-05
-1.06859e-05
8.08912e-05
-8.31227e-06
8.06436e-05
-5.90315e-06
8.05277e-05
-3.46275e-06
8.05446e-05
-9.94575e-07
1.50145e-06
8.0696e-05
8.39311e-05
-1.87367e-05
-8.49368e-05
8.30444e-05
-1.66656e-05
8.22792e-05
-1.45448e-05
8.1638e-05
-1.23785e-05
8.11228e-05
-1.01707e-05
8.07357e-05
-7.92514e-06
8.04783e-05
-5.64573e-06
8.0352e-05
-3.33652e-06
8.03583e-05
-1.00087e-06
1.36116e-06
8.04986e-05
8.38243e-05
-1.77247e-05
-8.48363e-05
8.29306e-05
-1.57719e-05
8.2158e-05
-1.37722e-05
8.15089e-05
-1.17294e-05
8.09854e-05
-9.64728e-06
8.05896e-05
-7.52927e-06
8.0323e-05
-5.37917e-06
8.01873e-05
-3.20077e-06
8.01836e-05
-9.97267e-07
1.23115e-06
8.03137e-05
8.37234e-05
-1.67068e-05
-8.47412e-05
8.28234e-05
-1.48719e-05
8.2044e-05
-1.29928e-05
8.13877e-05
-1.10731e-05
8.08566e-05
-9.11618e-06
8.04527e-05
-7.12535e-06
8.01777e-05
-5.10417e-06
8.00331e-05
-3.0562e-06
8.00204e-05
-9.84485e-07
1.11071e-06
8.01408e-05
8.36285e-05
-1.56837e-05
-8.46516e-05
8.27228e-05
-1.39663e-05
8.19373e-05
-1.22073e-05
8.12744e-05
-1.04102e-05
8.07363e-05
-8.57807e-06
8.0325e-05
-6.71403e-06
8.00422e-05
-4.82138e-06
7.98895e-05
-2.90349e-06
7.98682e-05
-9.63202e-07
9.99123e-07
7.99798e-05
8.35398e-05
-1.46559e-05
-8.45676e-05
8.26289e-05
-1.30554e-05
8.18378e-05
-1.14162e-05
8.11689e-05
-9.74127e-06
8.06243e-05
-8.03354e-06
8.02062e-05
-6.29591e-06
7.99163e-05
-4.53143e-06
7.9756e-05
-2.74326e-06
7.97269e-05
-9.34058e-07
8.95749e-07
7.98303e-05
8.34573e-05
-1.36238e-05
-8.44893e-05
8.25417e-05
-1.21399e-05
8.17455e-05
-1.062e-05
8.10711e-05
-9.06685e-06
8.05207e-05
-7.48314e-06
8.00963e-05
-5.87154e-06
7.97998e-05
-4.23489e-06
7.96326e-05
-2.5761e-06
7.95962e-05
-8.97663e-07
7.9996e-07
7.9692e-05
8.33809e-05
-1.25879e-05
-8.44168e-05
8.24612e-05
-1.12201e-05
8.16604e-05
-9.81917e-06
8.0981e-05
-8.38745e-06
8.04253e-05
-6.9274e-06
7.99952e-05
-5.44148e-06
7.96926e-05
-3.93231e-06
7.95191e-05
-2.40258e-06
7.9476e-05
-8.54593e-07
7.1116e-07
7.95648e-05
8.33109e-05
-1.15486e-05
-8.43501e-05
8.23874e-05
-1.02967e-05
8.15824e-05
-9.01423e-06
8.08985e-05
-7.70354e-06
8.03379e-05
-6.36678e-06
7.99026e-05
-5.00621e-06
7.95945e-05
-3.6242e-06
7.94152e-05
-2.22322e-06
7.9366e-05
-8.05398e-07
6.28778e-07
7.94484e-05
8.3247e-05
-1.05064e-05
-8.42893e-05
8.23202e-05
-9.36983e-06
8.15115e-05
-8.20558e-06
8.08236e-05
-7.01557e-06
8.02586e-05
-5.80177e-06
7.98186e-05
-4.56621e-06
7.95054e-05
-3.31106e-06
7.93207e-05
-2.03855e-06
7.9266e-05
-7.50604e-07
5.52267e-07
7.93425e-05
8.31893e-05
-9.46155e-06
-8.42342e-05
8.22596e-05
-8.44006e-06
8.14476e-05
-7.39364e-06
8.0756e-05
-6.32397e-06
8.01871e-05
-5.2328e-06
7.97428e-05
-4.12196e-06
7.94251e-05
-2.99337e-06
7.92356e-05
-1.84904e-06
7.91757e-05
-6.90719e-07
4.81104e-07
7.92469e-05
8.31378e-05
-8.41447e-06
-8.41849e-05
8.22055e-05
-7.50772e-06
8.13906e-05
-6.5788e-06
8.06958e-05
-5.62915e-06
8.01233e-05
-4.6603e-06
7.96752e-05
-3.67387e-06
7.93534e-05
-2.67156e-06
7.91595e-05
-1.65516e-06
7.90951e-05
-6.26228e-07
4.14777e-07
7.91614e-05
8.30924e-05
-7.36552e-06
-8.41413e-05
8.21578e-05
-6.5732e-06
8.13405e-05
-5.76145e-06
8.06429e-05
-4.9315e-06
8.00672e-05
-4.08468e-06
7.96157e-05
-3.22237e-06
7.92903e-05
-2.34608e-06
7.90925e-05
-1.45737e-06
7.90238e-05
-5.57605e-07
3.52791e-07
7.90858e-05
8.30529e-05
-6.31505e-06
-8.41034e-05
8.21166e-05
-5.63685e-06
8.12971e-05
-4.94196e-06
8.0597e-05
-4.23141e-06
8.00187e-05
-3.50632e-06
7.95642e-05
-2.76787e-06
7.92354e-05
-2.01736e-06
7.90342e-05
-1.25611e-06
7.89619e-05
-4.85309e-07
2.94662e-07
7.902e-05
8.30195e-05
-5.26343e-06
-8.40711e-05
8.20817e-05
-4.69904e-06
8.12604e-05
-4.12071e-06
8.05582e-05
-3.52925e-06
7.99775e-05
-2.92561e-06
7.95204e-05
-2.31077e-06
7.91889e-05
-1.6858e-06
7.89846e-05
-1.05181e-06
7.89091e-05
-4.09796e-07
2.39914e-07
7.89638e-05
8.29919e-05
-4.21099e-06
-8.40443e-05
8.20529e-05
-3.76012e-06
8.12303e-05
-3.29803e-06
8.05264e-05
-2.82539e-06
7.99437e-05
-2.34294e-06
7.94844e-05
-1.85146e-06
7.91504e-05
-1.35182e-06
7.89435e-05
-8.44905e-07
7.88652e-05
-3.31517e-07
1.8807e-07
7.89171e-05
8.29701e-05
-3.1581e-06
-8.40229e-05
8.20304e-05
-2.82043e-06
8.12066e-05
-2.47429e-06
8.05014e-05
-2.12018e-06
7.99171e-05
-1.75866e-06
7.9456e-05
-1.39033e-06
7.912e-05
-1.01582e-06
7.89109e-05
-6.35821e-07
7.88303e-05
-2.50925e-07
1.38651e-07
7.88797e-05
8.2954e-05
-2.1051e-06
-8.4007e-05
8.20138e-05
-1.8803e-06
8.11894e-05
-1.64982e-06
8.04832e-05
-1.41397e-06
7.98977e-05
-1.17315e-06
7.94351e-05
-9.2776e-07
7.90975e-05
-6.78224e-07
7.88867e-05
-4.24999e-07
7.88042e-05
-1.68483e-07
9.11687e-08
7.88517e-05
8.29435e-05
-1.0523e-06
-8.39963e-05
8.20033e-05
-9.40066e-07
8.11784e-05
-8.24946e-07
8.04716e-05
-7.07123e-07
7.98852e-05
-5.86798e-07
7.94216e-05
-4.64171e-07
7.90828e-05
-3.39462e-07
7.88707e-05
-2.12895e-07
7.87869e-05
-8.46715e-08
4.51254e-08
7.8833e-05
8.29386e-05
-8.39909e-05
8.19985e-05
8.11736e-05
8.04665e-05
7.98797e-05
7.94155e-05
7.9076e-05
7.88631e-05
7.87785e-05
7.88236e-05
8.22685e-05
2.97348e-06
8.13968e-05
1.25124e-06
8.09703e-05
1.96449e-06
8.10985e-05
3.55506e-06
8.11221e-05
4.42214e-06
8.1028e-05
5.11694e-06
8.092e-05
5.94212e-06
8.08135e-05
6.83611e-06
8.07016e-05
7.76591e-06
8.05879e-05
8.75026e-06
8.04809e-05
9.80599e-06
8.03898e-05
1.09425e-05
8.03245e-05
1.21687e-05
8.02974e-05
1.3494e-05
8.03237e-05
1.49272e-05
8.04217e-05
1.64747e-05
8.06142e-05
1.8138e-05
8.09329e-05
1.99054e-05
8.14436e-05
2.17282e-05
2.3447e-05
8.19858e-05
1.78628e-06
8.15064e-05
1.73058e-06
8.11508e-05
2.32009e-06
8.11955e-05
3.51041e-06
8.12113e-05
4.40635e-06
8.11504e-05
5.17778e-06
8.1079e-05
6.01355e-06
8.10113e-05
6.90378e-06
8.09445e-05
7.83271e-06
8.08826e-05
8.81221e-06
8.08335e-05
9.85504e-06
8.08064e-05
1.09696e-05
8.08115e-05
1.21635e-05
8.08614e-05
1.34441e-05
8.09713e-05
1.48172e-05
8.11599e-05
1.62861e-05
8.14499e-05
1.78479e-05
8.18703e-05
1.9485e-05
8.24564e-05
2.1142e-05
2.26804e-05
8.13838e-05
1.23328e-06
8.13239e-05
1.79041e-06
8.11719e-05
2.4721e-06
8.11987e-05
3.48362e-06
8.12292e-05
4.37586e-06
8.12148e-05
5.19216e-06
8.11886e-05
6.03977e-06
8.11645e-05
6.92789e-06
8.11446e-05
7.85262e-06
8.11339e-05
8.82289e-06
8.11403e-05
9.84862e-06
8.11728e-05
1.09371e-05
8.12418e-05
1.20946e-05
8.13595e-05
1.33264e-05
8.15405e-05
1.46362e-05
8.1802e-05
1.60246e-05
8.2164e-05
1.7486e-05
8.26482e-05
1.90008e-05
8.32749e-05
2.05153e-05
2.18962e-05
8.11221e-05
9.62471e-07
8.11494e-05
1.7631e-06
8.11137e-05
2.50779e-06
8.11616e-05
3.43575e-06
8.1215e-05
4.32242e-06
8.12424e-05
5.16473e-06
8.12605e-05
6.0217e-06
8.12804e-05
6.90802e-06
8.13066e-05
7.82639e-06
8.13451e-05
8.78441e-06
8.14036e-05
9.7901e-06
8.1491e-05
1.08497e-05
8.16174e-05
1.19682e-05
8.17945e-05
1.31493e-05
8.20356e-05
1.43951e-05
8.23562e-05
1.5704e-05
8.27732e-05
1.7069e-05
8.33038e-05
1.84702e-05
8.39623e-05
1.98568e-05
2.11027e-05
8.09949e-05
8.35175e-07
8.10408e-05
1.71723e-06
8.10605e-05
2.48814e-06
8.11228e-05
3.37344e-06
8.11935e-05
4.25164e-06
8.12534e-05
5.10488e-06
8.13093e-05
5.96579e-06
8.13689e-05
6.84836e-06
8.14375e-05
7.75785e-06
8.1521e-05
8.70093e-06
8.16268e-05
9.68424e-06
8.17635e-05
1.0713e-05
8.19406e-05
1.17911e-05
8.21689e-05
1.2921e-05
8.24606e-05
1.41034e-05
8.28291e-05
1.53356e-05
8.32886e-05
1.66094e-05
8.3853e-05
1.79058e-05
8.45326e-05
1.91773e-05
2.03059e-05
8.09415e-05
7.7571e-07
8.09857e-05
1.67301e-06
8.10274e-05
2.44648e-06
8.10967e-05
3.30408e-06
8.11787e-05
4.16967e-06
8.12613e-05
5.02225e-06
8.13467e-05
5.88043e-06
8.14396e-05
6.75545e-06
8.15446e-05
7.65281e-06
8.16674e-05
8.57818e-06
8.18147e-05
9.53697e-06
8.19943e-05
1.05334e-05
8.22149e-05
1.15704e-05
8.24865e-05
1.26494e-05
8.28199e-05
1.37701e-05
8.32266e-05
1.49289e-05
8.37185e-05
1.61175e-05
8.43069e-05
1.73174e-05
8.49992e-05
1.84849e-05
1.95097e-05
8.0926e-05
7.45278e-07
8.09648e-05
1.63414e-06
8.10139e-05
2.3974e-06
8.10864e-05
3.23164e-06
8.11752e-05
4.08084e-06
8.12732e-05
4.92429e-06
8.13803e-05
5.77328e-06
8.14995e-05
6.63624e-06
8.16345e-05
7.51783e-06
8.17901e-05
8.42259e-06
8.19723e-05
9.35477e-06
8.21881e-05
1.03176e-05
8.24452e-05
1.13132e-05
8.27525e-05
1.23421e-05
8.31194e-05
1.34032e-05
8.35558e-05
1.44925e-05
8.40717e-05
1.56016e-05
8.46761e-05
1.6713e-05
8.53747e-05
1.77863e-05
1.87182e-05
8.09279e-05
7.26017e-07
8.09635e-05
1.59853e-06
8.10152e-05
2.34569e-06
8.10893e-05
3.15757e-06
8.11826e-05
3.98757e-06
8.12909e-05
4.81598e-06
8.14138e-05
5.65034e-06
8.15532e-05
6.49687e-06
8.17119e-05
7.35911e-06
8.1894e-05
8.24047e-06
8.21047e-05
9.1441e-06
8.235e-05
1.00723e-05
8.26367e-05
1.10264e-05
8.29726e-05
1.20063e-05
8.33656e-05
1.30101e-05
8.38243e-05
1.40338e-05
8.4357e-05
1.50689e-05
8.49708e-05
1.60992e-05
8.567e-05
1.70871e-05
1.79359e-05
8.09373e-05
7.10161e-07
8.09723e-05
1.56358e-06
8.10257e-05
2.29226e-06
8.11013e-05
3.08197e-06
8.1198e-05
3.89086e-06
8.13138e-05
4.70026e-06
8.14482e-05
5.51585e-06
8.16028e-05
6.3423e-06
8.17799e-05
7.18207e-06
8.19828e-05
8.03755e-06
8.22159e-05
8.91095e-06
8.24845e-05
9.80375e-06
8.27945e-05
1.07165e-05
8.31523e-05
1.16485e-05
8.35649e-05
1.25975e-05
8.40394e-05
1.35593e-05
8.45825e-05
1.45258e-05
8.52002e-05
1.54816e-05
8.58954e-05
1.63918e-05
1.71665e-05
8.09497e-05
6.9453e-07
8.09857e-05
1.52757e-06
8.10411e-05
2.2369e-06
8.11186e-05
3.00441e-06
8.12185e-05
3.79097e-06
8.134e-05
4.57883e-06
8.14831e-05
5.37272e-06
8.16491e-05
6.17628e-06
8.18401e-05
6.9911e-06
8.20589e-05
7.81874e-06
8.23093e-05
8.66058e-06
8.25956e-05
9.51739e-06
8.2923e-05
1.03891e-05
8.3297e-05
1.12745e-05
8.37233e-05
1.21712e-05
8.42078e-05
1.30747e-05
8.47562e-05
1.39774e-05
8.5373e-05
1.48648e-05
8.60602e-05
1.57046e-05
1.64129e-05
8.0963e-05
6.77997e-07
8.10008e-05
1.48972e-06
8.10584e-05
2.17931e-06
8.11383e-05
2.92448e-06
8.12414e-05
3.68795e-06
8.13675e-05
4.45269e-06
8.15173e-05
5.22292e-06
8.1692e-05
6.00161e-06
8.18934e-05
6.7897e-06
8.2124e-05
7.58807e-06
8.23871e-05
8.39746e-06
8.26865e-05
9.21804e-06
8.30263e-05
1.00492e-05
8.34113e-05
1.08896e-05
8.38463e-05
1.17363e-05
8.4336e-05
1.25849e-05
8.48851e-05
1.34283e-05
8.5497e-05
1.42529e-05
8.6173e-05
1.50287e-05
1.56775e-05
8.09762e-05
6.60308e-07
8.10161e-05
1.44983e-06
8.1076e-05
2.11937e-06
8.11585e-05
2.84204e-06
8.12645e-05
3.58189e-06
8.13947e-05
4.32255e-06
8.15497e-05
5.06789e-06
8.17309e-05
5.82043e-06
8.194e-05
6.58061e-06
8.21792e-05
7.34883e-06
8.24514e-05
8.12529e-06
8.27597e-05
8.90973e-06
8.31078e-05
9.70119e-06
8.34994e-05
1.04979e-05
8.39388e-05
1.1297e-05
8.44296e-05
1.20941e-05
8.49757e-05
1.28823e-05
8.55795e-05
1.36491e-05
8.62416e-05
1.43666e-05
1.49621e-05
8.0989e-05
6.41549e-07
8.10308e-05
1.40805e-06
8.1093e-05
2.05722e-06
8.11779e-05
2.75714e-06
8.12867e-05
3.47302e-06
8.14202e-05
4.18902e-06
8.15794e-05
4.90876e-06
8.17654e-05
5.63438e-06
8.198e-05
6.36601e-06
8.22252e-05
7.10363e-06
8.25034e-05
7.84709e-06
8.28174e-05
8.59577e-06
8.31701e-05
9.34843e-06
8.35649e-05
1.01031e-05
8.4005e-05
1.08569e-05
8.44936e-05
1.16055e-05
8.50335e-05
1.23424e-05
8.56266e-05
1.3056e-05
8.62728e-05
1.37204e-05
1.42681e-05
8.10013e-05
6.21918e-07
8.10447e-05
1.36466e-06
8.11088e-05
1.99313e-06
8.11959e-05
2.67006e-06
8.13072e-05
3.36172e-06
8.14435e-05
4.05274e-06
8.16057e-05
4.74649e-06
8.17953e-05
5.44485e-06
8.20136e-05
6.14766e-06
8.22626e-05
6.85463e-06
8.25444e-05
7.56533e-06
8.28613e-05
8.27888e-06
8.32159e-05
8.99384e-06
8.36108e-05
9.70813e-06
8.40488e-05
1.04188e-05
8.45324e-05
1.11219e-05
8.50637e-05
1.18111e-05
8.5644e-05
1.24756e-05
8.62728e-05
1.30916e-05
1.35962e-05
8.1013e-05
6.01624e-07
8.10577e-05
1.31999e-06
8.11234e-05
1.92746e-06
8.12122e-05
2.58118e-06
8.13255e-05
3.24846e-06
8.14639e-05
3.91434e-06
8.16284e-05
4.58198e-06
8.18203e-05
5.25298e-06
8.20409e-05
5.92701e-06
8.2292e-05
6.60356e-06
8.25753e-05
7.28199e-06
8.2893e-05
7.96124e-06
8.32471e-05
8.63975e-06
8.36398e-05
9.31538e-06
8.40734e-05
9.98527e-06
8.45498e-05
1.06455e-05
8.50706e-05
1.12903e-05
8.56366e-05
1.19096e-05
8.6247e-05
1.24813e-05
1.29471e-05
8.10242e-05
5.80861e-07
8.10698e-05
1.2744e-06