/*--------------------------------*- C++ -*----------------------------------*\
  =========                 |
  \\      /  F ield         | OpenFOAM: The Open Source CFD Toolbox
   \\    /   O peration     | Website:  https://openfoam.org
    \\  /    A nd           | Version:  6
     \\/     M anipulation  |
\*---------------------------------------------------------------------------*/
FoamFile
{
    version     2.0;
    format      ascii;
    class       volScalarField;
    location    "0.95";
    object      p;
}
// * * * * * * * * * * * * * * * * * * * * * * * * * * * * * * * * * * * * * //

dimensions      [0 2 -2 0 0 0 0];

internalField   nonuniform List<scalar> 
5600
(
996.022
997.056
997.897
997.918
997.827
997.814
997.828
997.837
997.843
997.849
997.856
997.864
997.873
997.883
997.894
997.906
997.919
997.933
997.949
997.967
995.973
997.076
997.913
997.918
997.825
997.814
997.828
997.837
997.842
997.848
997.856
997.864
997.872
997.882
997.893
997.905
997.918
997.932
997.948
997.965
995.946
997.081
997.92
997.917
997.823
997.813
997.827
997.835
997.84
997.846
997.853
997.861
997.869
997.879
997.889
997.9
997.913
997.926
997.941
997.957
995.916
997.082
997.925
997.916
997.82
997.81
997.824
997.832
997.837
997.842
997.848
997.856
997.864
997.872
997.882
997.892
997.904
997.916
997.929
997.943
995.879
997.083
997.929
997.914
997.817
997.807
997.821
997.828
997.832
997.836
997.842
997.849
997.856
997.864
997.872
997.881
997.891
997.901
997.913
997.924
995.838
997.083
997.934
997.912
997.812
997.803
997.816
997.822
997.825
997.829
997.834
997.84
997.846
997.852
997.86
997.867
997.875
997.883
997.892
997.9
995.792
997.085
997.94
997.909
997.806
997.797
997.81
997.815
997.817
997.82
997.825
997.829
997.834
997.839
997.845
997.85
997.856
997.861
997.867
997.871
995.742
997.089
997.948
997.905
997.799
997.791
997.803
997.807
997.808
997.81
997.813
997.817
997.82
997.824
997.828
997.831
997.834
997.837
997.839
997.839
995.684
997.1
997.957
997.898
997.79
997.783
997.795
997.798
997.798
997.799
997.801
997.804
997.806
997.808
997.81
997.811
997.812
997.811
997.81
997.805
995.57
997.14
997.973
997.881
997.777
997.775
997.786
997.787
997.787
997.787
997.789
997.79
997.791
997.791
997.791
997.791
997.789
997.785
997.78
997.772
997.99
998.02
998.054
998.094
998.139
998.191
998.25
998.314
998.385
998.555
997.987
998.016
998.049
998.088
998.132
998.182
998.239
998.301
998.367
998.537
997.977
998.005
998.037
998.074
998.116
998.163
998.216
998.273
998.335
998.5
997.96
997.985
998.016
998.05
998.089
998.132
998.179
998.231
998.287
998.443
997.936
997.958
997.986
998.017
998.052
998.09
998.131
998.176
998.224
998.369
997.906
997.924
997.949
997.977
998.006
998.039
998.073
998.109
998.148
998.279
997.871
997.886
997.908
997.931
997.955
997.98
998.007
998.034
998.062
998.175
997.833
997.843
997.862
997.88
997.899
997.917
997.935
997.952
997.97
998.063
997.792
997.799
997.814
997.827
997.84
997.851
997.861
997.869
997.875
997.945
997.749
997.755
997.766
997.774
997.781
997.785
997.786
997.782
997.775
997.821
997.713
997.721
997.726
997.727
997.724
997.715
997.698
997.673
997.645
997.679
997.674
997.678
997.677
997.671
997.661
997.643
997.615
997.578
997.539
997.552
997.632
997.631
997.624
997.612
997.595
997.569
997.533
997.488
997.442
997.432
997.588
997.582
997.57
997.552
997.528
997.495
997.451
997.4
997.347
997.318
997.543
997.532
997.515
997.492
997.462
997.422
997.373
997.316
997.258
997.211
997.497
997.483
997.461
997.433
997.398
997.353
997.299
997.238
997.177
997.114
997.453
997.434
997.409
997.377
997.338
997.29
997.233
997.169
997.106
997.029
997.411
997.389
997.36
997.326
997.284
997.233
997.174
997.11
997.046
996.957
997.372
997.347
997.316
997.28
997.236
997.185
997.126
997.062
996.997
996.898
997.336
997.309
997.278
997.24
997.196
997.144
997.086
997.022
996.957
996.849
997.709
997.668
997.627
997.586
997.543
997.501
997.46
997.422
997.386
997.354
997.695
997.657
997.618
997.58
997.541
997.502
997.465
997.429
997.397
997.367
997.679
997.643
997.607
997.572
997.536
997.501
997.468
997.436
997.406
997.378
997.665
997.631
997.597
997.565
997.533
997.501
997.47
997.441
997.414
997.388
997.652
997.62
997.589
997.56
997.53
997.501
997.473
997.446
997.421
997.397
997.64
997.611
997.582
997.555
997.528
997.501
997.475
997.451
997.427
997.405
997.63
997.603
997.576
997.551
997.526
997.501
997.477
997.454
997.433
997.412
997.62
997.595
997.571
997.548
997.524
997.501
997.479
997.458
997.438
997.418
997.612
997.589
997.566
997.544
997.523
997.502
997.481
997.461
997.442
997.424
997.604
997.583
997.562
997.542
997.521
997.502
997.482
997.464
997.446
997.429
997.598
997.577
997.558
997.539
997.52
997.502
997.484
997.466
997.45
997.433
997.591
997.573
997.554
997.537
997.519
997.502
997.485
997.469
997.453
997.437
997.586
997.568
997.551
997.535
997.518
997.502
997.486
997.471
997.456
997.441
997.581
997.564
997.548
997.533
997.517
997.502
997.487
997.473
997.458
997.444
997.576
997.561
997.546
997.531
997.517
997.502
997.488
997.474
997.461
997.447
997.572
997.557
997.543
997.53
997.516
997.502
997.489
997.476
997.463
997.45
997.568
997.554
997.541
997.528
997.515
997.502
997.489
997.477
997.465
997.453
997.565
997.552
997.539
997.527
997.514
997.502
997.49
997.478
997.467
997.455
997.561
997.549
997.537
997.526
997.514
997.502
997.491
997.479
997.468
997.457
997.558
997.547
997.536
997.524
997.513
997.502
997.491
997.48
997.47
997.459
997.556
997.545
997.534
997.523
997.513
997.502
997.492
997.481
997.471
997.461
997.553
997.543
997.532
997.522
997.512
997.502
997.492
997.482
997.472
997.462
997.551
997.541
997.531
997.521
997.512
997.502
997.492
997.483
997.473
997.464
997.548
997.539
997.53
997.52
997.511
997.502
997.493
997.483
997.474
997.465
997.546
997.537
997.528
997.52
997.511
997.502
997.493
997.484
997.475
997.466
997.544
997.536
997.527
997.519
997.51
997.502
997.493
997.484
997.476
997.468
997.543
997.534
997.526
997.518
997.51
997.501
997.493
997.485
997.477
997.469
997.541
997.533
997.525
997.517
997.509
997.501
997.493
997.485
997.477
997.47
997.539
997.532
997.524
997.517
997.509
997.501
997.493
997.486
997.478
997.47
997.538
997.531
997.523
997.516
997.508
997.501
997.494
997.486
997.479
997.471
997.537
997.53
997.523
997.515
997.508
997.501
997.494
997.486
997.479
997.472
997.535
997.529
997.522
997.515
997.508
997.501
997.494
997.487
997.48
997.473
997.534
997.528
997.521
997.514
997.507
997.501
997.494
997.487
997.48
997.473
997.533
997.527
997.52
997.514
997.507
997.5
997.494
997.487
997.48
997.474
997.532
997.526
997.52
997.513
997.507
997.5
997.494
997.487
997.481
997.474
997.531
997.525
997.519
997.513
997.507
997.5
997.494
997.487
997.481
997.475
997.53
997.524
997.518
997.512
997.506
997.5
997.494
997.487
997.481
997.475
997.529
997.524
997.518
997.512
997.506
997.5
997.494
997.488
997.481
997.475
997.529
997.523
997.518
997.512
997.506
997.5
997.494
997.488
997.482
997.476
997.528
997.523
997.517
997.511
997.506
997.5
997.494
997.488
997.482
997.476
997.528
997.522
997.517
997.511
997.505
997.5
997.494
997.488
997.482
997.476
997.527
997.522
997.516
997.511
997.505
997.499
997.494
997.488
997.482
997.476
997.527
997.521
997.516
997.511
997.505
997.499
997.494
997.488
997.482
997.477
997.526
997.521
997.516
997.51
997.505
997.499
997.494
997.488
997.482
997.477
997.526
997.521
997.516
997.51
997.505
997.499
997.494
997.488
997.482
997.477
997.525
997.52
997.515
997.51
997.505
997.499
997.494
997.488
997.483
997.477
997.525
997.52
997.515
997.51
997.505
997.499
997.494
997.488
997.483
997.477
997.525
997.52
997.515
997.51
997.504
997.499
997.494
997.488
997.483
997.477
997.525
997.52
997.515
997.51
997.504
997.499
997.494
997.488
997.483
997.477
997.525
997.52
997.515
997.51
997.504
997.499
997.494
997.488
997.483
997.477
995.332
997.263
998.007
997.847
997.76
997.768
997.776
997.775
997.773
997.773
997.773
997.772
997.771
997.769
997.767
997.763
997.758
997.751
997.74
997.723
995.226
997.304
998.008
997.825
997.749
997.762
997.768
997.766
997.764
997.763
997.762
997.761
997.759
997.756
997.753
997.748
997.741
997.733
997.722
997.705
995.181
997.303
997.999
997.811
997.74
997.754
997.76
997.757
997.755
997.754
997.752
997.75
997.747
997.744
997.74
997.734
997.727
997.719
997.707
997.692
995.154
997.296
997.991
997.801
997.731
997.746
997.751
997.748
997.746
997.744
997.742
997.739
997.736
997.732
997.728
997.721
997.714
997.705
997.693
997.679
995.133
997.288
997.984
997.791
997.722
997.738
997.743
997.739
997.737
997.735
997.732
997.729
997.725
997.721
997.716
997.709
997.701
997.692
997.68
997.666
995.115
997.279
997.977
997.783
997.714
997.729
997.734
997.731
997.728
997.725
997.723
997.719
997.715
997.71
997.705
997.698
997.69
997.68
997.669
997.655
995.097
997.27
997.97
997.775
997.706
997.721
997.726
997.722
997.719
997.717
997.713
997.71
997.705
997.7
997.694
997.687
997.679
997.669
997.658
997.645
995.081
997.261
997.963
997.767
997.697
997.713
997.718
997.714
997.711
997.708
997.704
997.7
997.696
997.69
997.684
997.677
997.669
997.659
997.648
997.635
995.064
997.253
997.957
997.759
997.69
997.705
997.71
997.706
997.703
997.699
997.696
997.692
997.687
997.681
997.675
997.668
997.659
997.65
997.639
997.627
995.048
997.244
997.95
997.752
997.682
997.698
997.702
997.698
997.695
997.691
997.688
997.683
997.678
997.673
997.666
997.659
997.651
997.641
997.631
997.619
995.032
997.236
997.944
997.745
997.675
997.69
997.695
997.691
997.687
997.684
997.68
997.675
997.67
997.665
997.658
997.651
997.643
997.634
997.623
997.612
995.017
997.228
997.938
997.738
997.667
997.683
997.688
997.683
997.68
997.676
997.672
997.668
997.663
997.657
997.65
997.643
997.635
997.626
997.616
997.606
995.002
997.22
997.932
997.731
997.66
997.676
997.681
997.676
997.673
997.669
997.665
997.661
997.655
997.65
997.643
997.636
997.628
997.62
997.61
997.6
994.987
997.212
997.926
997.725
997.654
997.669
997.674
997.67
997.666
997.662
997.658
997.654
997.649
997.643
997.637
997.629
997.622
997.613
997.604
997.594
994.973
997.205
997.92
997.719
997.647
997.663
997.667
997.663
997.659
997.656
997.652
997.647
997.642
997.636
997.63
997.623
997.616
997.608
997.599
997.589
994.96
997.197
997.915
997.713
997.641
997.657
997.661
997.657
997.653
997.649
997.645
997.641
997.636
997.63
997.624
997.617
997.61
997.602
997.594
997.584
994.946
997.19
997.909
997.707
997.635
997.651
997.655
997.651
997.647
997.644
997.64
997.635
997.63
997.625
997.619
997.612
997.605
997.597
997.589
997.58
994.934
997.184
997.904
997.701
997.629
997.645
997.65
997.645
997.641
997.638
997.634
997.629
997.625
997.619
997.613
997.607
997.6
997.593
997.585
997.576
994.921
997.177
997.899
997.696
997.624
997.64
997.644
997.64
997.636
997.632
997.629
997.624
997.619
997.614
997.608
997.602
997.595
997.588
997.581
997.572
994.91
997.171
997.895
997.69
997.618
997.634
997.639
997.634
997.631
997.627
997.623
997.619
997.614
997.609
997.604
997.598
997.591
997.584
997.577
997.569
994.898
997.165
997.89
997.686
997.613
997.629
997.634
997.629
997.626
997.622
997.619
997.614
997.61
997.605
997.599
997.593
997.587
997.58
997.573
997.566
994.888
997.159
997.886
997.681
997.608
997.624
997.629
997.625
997.621
997.618
997.614
997.61
997.605
997.6
997.595
997.589
997.583
997.577
997.57
997.563
994.877
997.154
997.882
997.676
997.604
997.62
997.625
997.62
997.617
997.613
997.61
997.606
997.601
997.596
997.591
997.586
997.58
997.573
997.567
997.56
994.867
997.149
997.878
997.672
997.599
997.616
997.62
997.616
997.612
997.609
997.606
997.602
997.597
997.593
997.588
997.582
997.576
997.57
997.564
997.557
994.858
997.144
997.874
997.668
997.595
997.611
997.616
997.612
997.608
997.605
997.602
997.598
997.594
997.589
997.584
997.579
997.573
997.568
997.561
997.555
994.849
997.139
997.871
997.664
997.591
997.607
997.612
997.608
997.604
997.601
997.598
997.594
997.59
997.586
997.581
997.576
997.57
997.565
997.559
997.553
994.841
997.135
997.867
997.66
997.587
997.604
997.608
997.604
997.601
997.598
997.595
997.591
997.587
997.583
997.578
997.573
997.568
997.562
997.556
997.551
994.833
997.13
997.864
997.657
997.584
997.6
997.605
997.601
997.597
997.595
997.591
997.588
997.584
997.58
997.575
997.57
997.565
997.56
997.554
997.549
994.825
997.126
997.861
997.653
997.58
997.597
997.602
997.598
997.594
997.591
997.588
997.585
997.581
997.577
997.572
997.568
997.563
997.558
997.552
997.547
994.818
997.123
997.858
997.65
997.577
997.594
997.599
997.595
997.591
997.588
997.585
997.582
997.578
997.574
997.57
997.565
997.561
997.556
997.55
997.545
994.811
997.119
997.856
997.647
997.574
997.591
997.596
997.592
997.588
997.586
997.583
997.579
997.576
997.572
997.568
997.563
997.559
997.554
997.549
997.543
994.805
997.116
997.853
997.644
997.571
997.588
997.593
997.589
997.586
997.583
997.58
997.577
997.573
997.569
997.565
997.561
997.557
997.552
997.547
997.542
994.799
997.112
997.851
997.642
997.569
997.585
997.59
997.586
997.583
997.581
997.578
997.574
997.571
997.567
997.563
997.559
997.555
997.55
997.545
997.54
994.793
997.11
997.848
997.639
997.566
997.583
997.588
997.584
997.581
997.578
997.576
997.572
997.569
997.565
997.561
997.557
997.553
997.549
997.544
997.539
994.788
997.107
997.846
997.637
997.564
997.581
997.586
997.582
997.579
997.576
997.573
997.57
997.567
997.563
997.56
997.556
997.552
997.547
997.543
997.538
994.783
997.104
997.844
997.635
997.562
997.578
997.584
997.58
997.577
997.574
997.572
997.568
997.565
997.562
997.558
997.554
997.55
997.546
997.541
997.537
994.778
997.102
997.843
997.633
997.56
997.576
997.582
997.578
997.575
997.572
997.57
997.567
997.564
997.56
997.557
997.553
997.549
997.545
997.54
997.536
994.774
997.1
997.841
997.631
997.558
997.575
997.58
997.576
997.573
997.571
997.568
997.565
997.562
997.559
997.555
997.551
997.548
997.543
997.539
997.535
994.77
997.098
997.839
997.629
997.556
997.573
997.578
997.575
997.572
997.569
997.567
997.564
997.561
997.557
997.554
997.55
997.546
997.542
997.538
997.534
994.767
997.096
997.838
997.628
997.554
997.571
997.577
997.573
997.57
997.568
997.565
997.562
997.559
997.556
997.553
997.549
997.545
997.541
997.537
997.533
994.763
997.094
997.837
997.627
997.553
997.57
997.575
997.572
997.569
997.567
997.564
997.561
997.558
997.555
997.552
997.548
997.544
997.541
997.537
997.532
994.76
997.092
997.836
997.625
997.552
997.569
997.574
997.571
997.568
997.566
997.563
997.56
997.557
997.554
997.551
997.547
997.544
997.54
997.536
997.532
994.758
997.091
997.835
997.624
997.551
997.568
997.573
997.57
997.567
997.565
997.562
997.559
997.556
997.553
997.55
997.547
997.543
997.539
997.535
997.531
994.755
997.09
997.834
997.623
997.55
997.567
997.572
997.569
997.566
997.564
997.561
997.559
997.556
997.553
997.549
997.546
997.542
997.539
997.535
997.531
994.754
997.089
997.833
997.623
997.549
997.566
997.572
997.568
997.565
997.563
997.561
997.558
997.555
997.552
997.549
997.545
997.542
997.538
997.534
997.53
994.753
997.087
997.832
997.622
997.549
997.566
997.571
997.567
997.565
997.562
997.56
997.557
997.554
997.551
997.548
997.545
997.541
997.538
997.534
997.53
994.753
997.086
997.832
997.622
997.548
997.565
997.57
997.567
997.564
997.562
997.56
997.557
997.554
997.551
997.548
997.544
997.541
997.537
997.534
997.53
994.757
997.084
997.832
997.623
997.548
997.565
997.57
997.567
997.564
997.562
997.559
997.557
997.554
997.551
997.548
997.544
997.541
997.537
997.533
997.529
994.776
997.072
997.831
997.626
997.548
997.564
997.57
997.566
997.564
997.561
997.559
997.556
997.553
997.55
997.547
997.544
997.541
997.537
997.533
997.529
994.844
997.026
997.822
997.633
997.549
997.563
997.57
997.566
997.563
997.561
997.559
997.556
997.553
997.55
997.547
997.544
997.54
997.537
997.533
997.529
997.19
997.155
997.123
997.094
997.064
997.032
996.997
996.96
996.923
996.856
997.194
997.159
997.126
997.098
997.069
997.038
997.005
996.97
996.935
996.876
997.188
997.158
997.128
997.103
997.075
997.046
997.015
996.983
996.95
996.898
997.182
997.156
997.129
997.105
997.079
997.052
997.024
996.994
996.964
996.921
997.176
997.154
997.129
997.107
997.083
997.058
997.031
997.004
996.977
996.943
997.171
997.152
997.13
997.109
997.087
997.063
997.038
997.013
996.99
996.963
997.167
997.151
997.131
997.111
997.09
997.068
997.045
997.021
997
996.981
997.165
997.15
997.132
997.114
997.093
997.072
997.05
997.028
997.009
996.995
997.164
997.15
997.134
997.116
997.096
997.075
997.054
997.033
997.014
997.004
997.165
997.151
997.135
997.117
997.098
997.077
997.056
997.035
997.017
997.009
997.174
997.183
997.192
997.201
997.209
997.218
997.226
997.234
997.242
997.249
997.257
997.264
997.27
997.277
997.283
997.289
997.295
997.301
997.306
997.311
997.316
997.321
997.326
997.33
997.334
997.338
997.342
997.346
997.349
997.353
997.356
997.359
997.363
997.366
997.369
997.372
997.374
997.377
997.38
997.383
997.386
997.389
997.391
997.394
997.397
997.401
997.404
997.407
997.411
997.415
997.171
997.18
997.189
997.198
997.207
997.216
997.224
997.232
997.24
997.248
997.255
997.262
997.269
997.276
997.282
997.288
997.294
997.3
997.305
997.311
997.316
997.32
997.325
997.329
997.334
997.338
997.342
997.345
997.349
997.352
997.356
997.359
997.362
997.365
997.368
997.371
997.374
997.377
997.38
997.383
997.385
997.388
997.391
997.394
997.397
997.4
997.403
997.407
997.41
997.414
997.167
997.175
997.185
997.195
997.204
997.213
997.222
997.23
997.238
997.246
997.253
997.261
997.268
997.274
997.281
997.287
997.293
997.299
997.304
997.31
997.315
997.319
997.324
997.329
997.333
997.337
997.341
997.345
997.348
997.352
997.355
997.358
997.362
997.365
997.368
997.371
997.374
997.376
997.379
997.382
997.385
997.388
997.39
997.393
997.396
997.399
997.402
997.405
997.409
997.412
997.162
997.17
997.181
997.192
997.201
997.21
997.219
997.228
997.236
997.244
997.252
997.259
997.266
997.273
997.28
997.286
997.292
997.298
997.303
997.309
997.314
997.319
997.323
997.328
997.332
997.336
997.34
997.344
997.348
997.351
997.355
997.358
997.361
997.364
997.367
997.37
997.373
997.376
997.378
997.381
997.384
997.387
997.389
997.392
997.395
997.398
997.4
997.403
997.407
997.41
997.156
997.164
997.177
997.188
997.198
997.208
997.217
997.226
997.234
997.242
997.25
997.258
997.265
997.272
997.278
997.285
997.291
997.297
997.302
997.308
997.313
997.318
997.322
997.327
997.331
997.335
997.339
997.343
997.347
997.35
997.354
997.357
997.36
997.363
997.366
997.369
997.372
997.375
997.377
997.38
997.383
997.385
997.388
997.391
997.393
997.396
997.398
997.401
997.404
997.407
997.151
997.157
997.172
997.185
997.195
997.205
997.215
997.224
997.232
997.241
997.249
997.256
997.264
997.271
997.277
997.284
997.29
997.296
997.301
997.307
997.312
997.317
997.321
997.326
997.33
997.335
997.338
997.342
997.346
997.35
997.353
997.356
997.359
997.362
997.365
997.368
997.371
997.374
997.376
997.379
997.381
997.384
997.386
997.389
997.391
997.393
997.396
997.398
997.401
997.403
997.147
997.152
997.169
997.182
997.193
997.203
997.213
997.222
997.231
997.24
997.248
997.255
997.263
997.27
997.276
997.283
997.289
997.295
997.3
997.306
997.311
997.316
997.321
997.325
997.329
997.334
997.338
997.341
997.345
997.349
997.352
997.355
997.358
997.361
997.364
997.367
997.37
997.372
997.375
997.377
997.38
997.382
997.384
997.387
997.389
997.391
997.393
997.395
997.397
997.399
997.144
997.149
997.167
997.181
997.192
997.202
997.212
997.222
997.231
997.239
997.247
997.255
997.262
997.269
997.276
997.282
997.288
997.294
997.3
997.305
997.31
997.315
997.32
997.324
997.329
997.333
997.337
997.34
997.344
997.347
997.351
997.354
997.357
997.36
997.363
997.366
997.368
997.371
997.373
997.376
997.378
997.38
997.382
997.384
997.386
997.388
997.39
997.391
997.393
997.394
997.142
997.148
997.168
997.182
997.193
997.203
997.213
997.222
997.231
997.239
997.247
997.255
997.262
997.269
997.275
997.282
997.288
997.293
997.299
997.304
997.309
997.314
997.319
997.323
997.328
997.332
997.336
997.339
997.343
997.346
997.35
997.353
997.356
997.359
997.361
997.364
997.367
997.369
997.371
997.374
997.376
997.378
997.38
997.381
997.383
997.385
997.386
997.387
997.388
997.389
997.144
997.155
997.174
997.187
997.198
997.208
997.217
997.226
997.234
997.242
997.249
997.256
997.263
997.27
997.276
997.282
997.288
997.294
997.299
997.304
997.309
997.314
997.318
997.323
997.327
997.331
997.335
997.338
997.342
997.345
997.348
997.351
997.354
997.357
997.36
997.362
997.365
997.367
997.369
997.371
997.373
997.375
997.377
997.378
997.38
997.381
997.382
997.383
997.384
997.384
997.196
997.191
997.191
997.198
997.206
997.214
997.222
997.23
997.237
997.245
997.252
997.259
997.265
997.272
997.278
997.284
997.289
997.295
997.3
997.305
997.31
997.314
997.319
997.323
997.327
997.331
997.335
997.338
997.342
997.345
997.348
997.351
997.354
997.357
997.359
997.362
997.364
997.366
997.368
997.37
997.372
997.373
997.375
997.376
997.377
997.378
997.379
997.38
997.38
997.38
997.21
997.207
997.205
997.209
997.216
997.222
997.229
997.236
997.243
997.249
997.256
997.262
997.269
997.275
997.28
997.286
997.291
997.296
997.301
997.306
997.311
997.315
997.32
997.324
997.328
997.331
997.335
997.338
997.342
997.345
997.348
997.351
997.353
997.356
997.358
997.361
997.363
997.365
997.367
997.368
997.37
997.372
997.373
997.374
997.375
997.376
997.376
997.377
997.377
997.377
997.218
997.218
997.217
997.221
997.226
997.231
997.237
997.243
997.249
997.255
997.261
997.267
997.272
997.278
997.283
997.289
997.294
997.299
997.303
997.308
997.312
997.316
997.321
997.324
997.328
997.332
997.335
997.338
997.342
997.345
997.347
997.35
997.353
997.355
997.357
997.36
997.362
997.364
997.365
997.367
997.368
997.37
997.371
997.372
997.373
997.373
997.374
997.374
997.373
997.373
997.226
997.228
997.228
997.231
997.235
997.24
997.245
997.25
997.255
997.261
997.266
997.271
997.276
997.282
997.287
997.291
997.296
997.301
997.305
997.31
997.314
997.318
997.322
997.325
997.329
997.332
997.335
997.339
997.342
997.344
997.347
997.35
997.352
997.354
997.357
997.359
997.361
997.362
997.364
997.365
997.367
997.368
997.369
997.37
997.37
997.371
997.371
997.371
997.37
997.37
997.236
997.238
997.238
997.241
997.244
997.248
997.252
997.257
997.262
997.266
997.271
997.276
997.281
997.285
997.29
997.295
997.299
997.303
997.307
997.311
997.315
997.319
997.323
997.326
997.33
997.333
997.336
997.339
997.342
997.344
997.347
997.349
997.352
997.354
997.356
997.358
997.36
997.361
997.363
997.364
997.365
997.366
997.367
997.368
997.368
997.368
997.368
997.368
997.367
997.366
997.245
997.247
997.248
997.25
997.253
997.256
997.26
997.264
997.268
997.272
997.276
997.281
997.285
997.289
997.294
997.298
997.302
997.306
997.31
997.313
997.317
997.32
997.324
997.327
997.33
997.333
997.336
997.339
997.342
997.344
997.347
997.349
997.351
997.353
997.355
997.357
997.358
997.36
997.361
997.362
997.363
997.364
997.365
997.365
997.366
997.366
997.365
997.365
997.364
997.363
997.255
997.257
997.258
997.259
997.262
997.265
997.268
997.271
997.274
997.278
997.282
997.286
997.29
997.293
997.297
997.301
997.305
997.308
997.312
997.315
997.319
997.322
997.325
997.328
997.331
997.334
997.337
997.339
997.342
997.344
997.347
997.349
997.351
997.353
997.354
997.356
997.357
997.359
997.36
997.361
997.362
997.363
997.363
997.363
997.363
997.363
997.363
997.362
997.361
997.36
997.265
997.266
997.267
997.269
997.27
997.273
997.275
997.278
997.281
997.284
997.287
997.291
997.294
997.298
997.301
997.304
997.308
997.311
997.314
997.317
997.321
997.324
997.327
997.329
997.332
997.335
997.337
997.34
997.342
997.344
997.346
997.348
997.35
997.352
997.354
997.355
997.356
997.358
997.359
997.36
997.36
997.361
997.361
997.361
997.361
997.361
997.361
997.36
997.359
997.357
997.275
997.276
997.276
997.277
997.279
997.281
997.283
997.285
997.287
997.29
997.293
997.296
997.299
997.302
997.305
997.308
997.311
997.314
997.317
997.32
997.323
997.325
997.328
997.331
997.333
997.336
997.338
997.34
997.342
997.344
997.346
997.348
997.35
997.351
997.353
997.354
997.356
997.357
997.358
997.358
997.359
997.359
997.36
997.36
997.359
997.359
997.358
997.358
997.356
997.355
997.285
997.285
997.285
997.286
997.287
997.288
997.29
997.292
997.294
997.296
997.298
997.301
997.303
997.306
997.309
997.311
997.314
997.317
997.319
997.322
997.325
997.327
997.33
997.332
997.334
997.337
997.339
997.341
997.343
997.345
997.346
997.348
997.35
997.351
997.352
997.354
997.355
997.356
997.356
997.357
997.358
997.358
997.358
997.358
997.358
997.357
997.356
997.355
997.354
997.352
997.295
997.294
997.294
997.294
997.295
997.296
997.297
997.298
997.3
997.302
997.304
997.306
997.308
997.31
997.313
997.315
997.317
997.32
997.322
997.324
997.327
997.329
997.331
997.333
997.335
997.337
997.339
997.341
997.343
997.345
997.346
997.348
997.349
997.351
997.352
997.353
997.354
997.355
997.355
997.356
997.356
997.356
997.356
997.356
997.356
997.355
997.355
997.353
997.352
997.35
997.304
997.303
997.302
997.302
997.303
997.303
997.304
997.305
997.306
997.307
997.309
997.311
997.312
997.314
997.316
997.318
997.32
997.323
997.325
997.327
997.329
997.331
997.333
997.335
997.337
997.339
997.34
997.342
997.344
997.345
997.347
997.348
997.349
997.35
997.351
997.352
997.353
997.354
997.354
997.355
997.355
997.355
997.355
997.355
997.354
997.354
997.353
997.352
997.35
997.348
997.313
997.311
997.311
997.31
997.31
997.31
997.31
997.311
997.312
997.313
997.314
997.315
997.317
997.319
997.32
997.322
997.324
997.325
997.327
997.329
997.331
997.333
997.335
997.336
997.338
997.34
997.341
997.343
997.344
997.346
997.347
997.348
997.349
997.35
997.351
997.352
997.353
997.353
997.354
997.354
997.354
997.354
997.354
997.354
997.353
997.352
997.351
997.35
997.349
997.347
997.321
997.319
997.318
997.318
997.317
997.317
997.317
997.317
997.318
997.318
997.319
997.32
997.321
997.323
997.324
997.325
997.327
997.328
997.33
997.332
997.333
997.335
997.336
997.338
997.339
997.341
997.342
997.343
997.345
997.346
997.347
997.348
997.349
997.35
997.351
997.352
997.352
997.353
997.353
997.353
997.353
997.353
997.353
997.352
997.352
997.351
997.35
997.349
997.347
997.346
997.329
997.327
997.326
997.325
997.324
997.323
997.323
997.323
997.323
997.323
997.324
997.325
997.326
997.327
997.328
997.329
997.33
997.331
997.333
997.334
997.335
997.337
997.338
997.339
997.341
997.342
997.343
997.344
997.345
997.346
997.347
997.348
997.349
997.35
997.351
997.351
997.352
997.352
997.352
997.352
997.352
997.352
997.352
997.351
997.351
997.35
997.349
997.348
997.346
997.345
997.337
997.334
997.333
997.331
997.33
997.329
997.329
997.328
997.328
997.328
997.329
997.329
997.33
997.33
997.331
997.332
997.333
997.334
997.335
997.336
997.337
997.339
997.34
997.341
997.342
997.343
997.344
997.345
997.346
997.347
997.348
997.349
997.349
997.35
997.351
997.351
997.351
997.352
997.352
997.352
997.352
997.352
997.351
997.351
997.35
997.349
997.348
997.347
997.345
997.344
997.344
997.341
997.339
997.338
997.336
997.335
997.334
997.334
997.333
997.333
997.333
997.333
997.334
997.334
997.335
997.335
997.336
997.337
997.338
997.339
997.34
997.341
997.341
997.342
997.343
997.344
997.345
997.346
997.347
997.348
997.348
997.349
997.35
997.35
997.351
997.351
997.351
997.351
997.351
997.351
997.351
997.351
997.351
997.35
997.349
997.348
997.347
997.346
997.345
997.343
997.35
997.347
997.345
997.344
997.342
997.341
997.34
997.339
997.338
997.338
997.338
997.338
997.338
997.338
997.338
997.339
997.339
997.34
997.34
997.341
997.342
997.342
997.343
997.344
997.345
997.346
997.346
997.347
997.348
997.348
997.349
997.349
997.35
997.35
997.351
997.351
997.351
997.351
997.351
997.351
997.351
997.35
997.35
997.349
997.349
997.348
997.347
997.346
997.344
997.343
997.356
997.353
997.351
997.349
997.347
997.346
997.345
997.344
997.343
997.342
997.342
997.342
997.341
997.341
997.342
997.342
997.342
997.342
997.343
997.343
997.344
997.344
997.345
997.346
997.346
997.347
997.347
997.348
997.348
997.349
997.349
997.35
997.35
997.35
997.351
997.351
997.351
997.351
997.351
997.351
997.351
997.35
997.35
997.349
997.348
997.347
997.346
997.345
997.344
997.342
997.362
997.359
997.357
997.354
997.353
997.351
997.349
997.348
997.347
997.346
997.346
997.345
997.345
997.345
997.345
997.345
997.345
997.345
997.345
997.346
997.346
997.346
997.347
997.347
997.348
997.348
997.348
997.349
997.349
997.35
997.35
997.35
997.351
997.351
997.351
997.351
997.351
997.351
997.351
997.351
997.35
997.35
997.349
997.349
997.348
997.347
997.346
997.345
997.344
997.342
997.367
997.364
997.362
997.359
997.357
997.355
997.354
997.353
997.351
997.35
997.35
997.349
997.348
997.348
997.348
997.348
997.347
997.347
997.348
997.348
997.348
997.348
997.348
997.349
997.349
997.349
997.35
997.35
997.35
997.35
997.351
997.351
997.351
997.351
997.351
997.351
997.351
997.351
997.351
997.351
997.35
997.35
997.349
997.349
997.348
997.347
997.346
997.345
997.344
997.342
997.372
997.369
997.366
997.364
997.362
997.36
997.358
997.357
997.355
997.354
997.353
997.352
997.352
997.351
997.351
997.35
997.35
997.35
997.35
997.35
997.35
997.35
997.35
997.35
997.35
997.351
997.351
997.351
997.351
997.351
997.351
997.351
997.351
997.351
997.351
997.351
997.351
997.351
997.351
997.351
997.35
997.35
997.349
997.348
997.348
997.347
997.346
997.345
997.344
997.343
997.377
997.373
997.371
997.368
997.366
997.364
997.362
997.36
997.359
997.358
997.357
997.356
997.355
997.354
997.353
997.353
997.353
997.352
997.352
997.352
997.352
997.352
997.352
997.352
997.352
997.352
997.352
997.352
997.352
997.352
997.352
997.352
997.352
997.352
997.352
997.352
997.351
997.351
997.351
997.351
997.35
997.35
997.349
997.349
997.348
997.347
997.346
997.345
997.344
997.343
997.381
997.377
997.375
997.372
997.37
997.368
997.366
997.364
997.362
997.361
997.36
997.359
997.358
997.357
997.356
997.355
997.355
997.354
997.354
997.354
997.354
997.353
997.353
997.353
997.353
997.353
997.353
997.353
997.353
997.353
997.353
997.353
997.352
997.352
997.352
997.352
997.352
997.351
997.351
997.351
997.35
997.35
997.349
997.349
997.348
997.347
997.346
997.345
997.344
997.343
997.385
997.381
997.379
997.376
997.374
997.371
997.369
997.367
997.366
997.364
997.363
997.362
997.36
997.359
997.359