/*--------------------------------*- C++ -*----------------------------------*\
  =========                 |
  \\      /  F ield         | OpenFOAM: The Open Source CFD Toolbox
   \\    /   O peration     | Website:  https://openfoam.org
    \\  /    A nd           | Version:  6
     \\/     M anipulation  |
\*---------------------------------------------------------------------------*/
FoamFile
{
    version     2.0;
    format      ascii;
    class       volVectorField;
    location    "0.95";
    object      U;
}
// * * * * * * * * * * * * * * * * * * * * * * * * * * * * * * * * * * * * * //

dimensions      [0 1 -1 0 0 0 0];

internalField   nonuniform List<vector> 
5600
(
(1.80296 0.00481007 3.74104e-19)
(1.19677 0.00553503 -6.43038e-18)
(0.977058 0.00511067 6.41597e-18)
(1.00876 0.00408894 0)
(1.03557 0.00371108 0)
(1.03132 0.0040318 0)
(1.02217 0.00451675 -1.19714e-17)
(1.01545 0.00498982 1.19442e-17)
(1.00914 0.00551369 0)
(1.00197 0.0061331 0)
(0.993848 0.00685132 0)
(0.984822 0.007671 0)
(0.974783 0.00860425 0)
(0.963576 0.00966745 -2.35686e-17)
(0.951038 0.0108783 2.35158e-17)
(0.936992 0.0122544 -4.69277e-17)
(0.92124 0.013809 4.68231e-17)
(0.903577 0.0155388 0)
(0.883801 0.0174019 -3.64193e-19)
(0.861752 0.0192608 0)
(1.81355 0.00866014 -3.68889e-19)
(1.19175 0.0118255 6.34144e-18)
(0.976548 0.012277 -6.32958e-18)
(1.0115 0.0114579 0)
(1.0375 0.0113119 0)
(1.03247 0.0121342 2.44402e-17)
(1.02324 0.0133206 2.70847e-22)
(1.0166 0.0146386 -7.37634e-19)
(1.01033 0.016156 1.36519e-22)
(1.00319 0.0179345 -2.35202e-17)
(0.995154 0.0199905 0)
(0.986238 0.0223424 -4.75953e-17)
(0.976341 0.0250242 4.67744e-17)
(0.965313 0.0280796 0)
(0.952999 0.0315572 0)
(0.939233 0.0355058 0)
(0.923827 0.03996 0)
(0.906587 0.0449077 -4.63385e-17)
(0.887313 0.0502257 4.66128e-17)
(0.865757 0.0555601 4.54744e-17)
(1.8265 0.00938681 0)
(1.18993 0.0180865 0)
(0.974935 0.0203499 0)
(1.01276 0.0189443 0)
(1.03918 0.0187276 2.34205e-17)
(1.03398 0.0201172 -2.41166e-17)
(1.02491 0.0220356 -1.45946e-18)
(1.01852 0.0241705 -7.28656e-19)
(1.01247 0.0266534 2.32828e-17)
(1.00555 0.0295734 -2.17954e-17)
(0.997756 0.0329524 -1.45089e-18)
(0.989132 0.0368199 4.70852e-17)
(0.979581 0.0412297 -4.77391e-17)
(0.968968 0.0462503 1.44452e-18)
(0.957158 0.0519585 4.61576e-17)
(0.944005 0.0584305 -9.36203e-17)
(0.929341 0.0657207 -1.43881e-18)
(0.912987 0.0738076 4.59555e-17)
(0.894745 0.0824898 -1.43402e-18)
(0.87429 0.091211 -7.16337e-19)
(1.84245 0.0113887 0)
(1.18935 0.0233647 -1.44398e-18)
(0.972813 0.0268745 0)
(1.01339 0.0254066 0)
(1.04074 0.0254342 0)
(1.03573 0.0274991 0)
(1.02702 0.0302175 1.43799e-18)
(1.02107 0.0332225 2.44221e-17)
(1.01544 0.0367018 -2.29629e-17)
(1.00893 0.0407733 -1.43378e-18)
(1.00158 0.0454668 2.86476e-18)
(0.993459 0.0508233 0)
(0.984484 0.0569155 -4.43173e-17)
(0.974549 0.0638347 4.42736e-17)
(0.963549 0.0716831 4.56576e-17)
(0.951369 0.0805621 -4.56126e-17)
(0.937874 0.0905444 9.25612e-17)
(0.922909 0.101603 -9.10471e-17)
(0.906298 0.113467 1.42124e-18)
(0.887665 0.125404 1.42043e-18)
(1.86114 0.0135788 -5.60398e-18)
(1.18886 0.0278907 7.07739e-18)
(0.970351 0.0322349 -1.13342e-17)
(1.01401 0.0308287 -1.13282e-17)
(1.04246 0.0312422 2.26483e-17)
(1.03778 0.0340506 2.26377e-17)
(1.02957 0.0376219 -2.26282e-17)
(1.02423 0.0415452 1.41368e-18)
(1.01918 0.0460513 1.41309e-18)
(1.01325 0.051279 4.52003e-17)
(1.00652 0.0572641 -9.03625e-17)
(0.999089 0.064058 1.41101e-18)
(0.990908 0.0717497 4.65538e-17)
(0.981903 0.0804503 1.41012e-18)
(0.972007 0.0902834 -4.36957e-17)
(0.961149 0.101371 4.79036e-17)
(0.949237 0.113802 1.40832e-18)
(0.936152 0.127544 0)
(0.921758 0.142262 1.40712e-18)
(0.90566 0.157068 1.4069e-18)
(1.88227 0.0156542 5.48382e-18)
(1.18812 0.0317518 -5.54112e-18)
(0.967598 0.0365575 1.38763e-18)
(1.01483 0.0351515 0)
(1.04455 0.036023 2.22084e-17)
(1.04025 0.0396468 -2.2213e-17)
(1.03264 0.0441262 1.38861e-18)
(1.02801 0.0490106 -4.72226e-17)
(1.02365 0.0545653 -2.77852e-18)
(1.01841 0.0609411 8.89256e-17)
(1.01243 0.0681755 -4.72511e-17)
(1.00585 0.0763283 -1.39002e-18)
(0.998642 0.0855016 -4.72701e-17)
(0.990784 0.0958224 -4.58891e-17)
(0.982251 0.10743 8.76223e-17)
(0.973024 0.120463 8.62488e-17)
(0.963061 0.135019 -9.04387e-17)
(0.952288 0.151061 8.76733e-17)
(0.940622 0.168198 -1.79554e-16)
(0.927678 0.185402 8.77189e-17)
(1.90548 0.0177392 0)
(1.18664 0.0348312 0)
(0.964464 0.0395697 -1.35667e-18)
(1.01605 0.0381782 2.17243e-17)
(1.04718 0.039679 -2.17435e-17)
(1.04324 0.0442365 -1.36008e-18)
(1.03626 0.0496934 -1.36131e-18)
(1.03239 0.0555793 1.36251e-18)
(1.02875 0.06219 1.36372e-18)
(1.02426 0.0696822 0)
(1.01912 0.0780931 4.50818e-17)
(1.01349 0.0874895 2.06679e-22)
(1.00741 0.097985 -4.24237e-17)
(1.00087 0.109718 -8.6292e-17)
(0.99391 0.122838 1.75476e-16)
(0.986565 0.137492 -8.64424e-17)
(0.978849 0.153783 8.78915e-17)
(0.970736 0.171671 -8.65929e-17)
(0.962204 0.190719 -8.80442e-17)
(0.952893 0.209789 8.67466e-17)
(1.93032 0.0207999 0)
(1.18332 0.0366938 1.32105e-18)
(0.960699 0.0405228 -2.11884e-17)
(1.01792 0.0397011 2.25489e-17)
(1.05051 0.0422455 -2.12539e-17)
(1.04675 0.0478715 2.39491e-17)
(1.04034 0.054373 0)
(1.03721 0.0612928 1.3348e-18)
(1.0343 0.0689392 0)
(1.03057 0.0774751 -1.33911e-18)
(1.02631 0.086944 4.29209e-17)
(1.02172 0.0974213 -4.29901e-17)
(1.01686 0.10903 -8.61192e-17)
(1.01177 0.121915 8.49101e-17)
(1.00655 0.13623 0)
(1.00127 0.152123 0)
(0.996021 0.1697 8.66766e-17)
(0.990821 0.188921 1.89855e-22)
(0.985713 0.209327 -8.69561e-17)
(0.980373 0.229739 8.84507e-17)
(1.95634 0.029135 -4.45015e-18)
(1.17511 0.0349441 4.49977e-18)
(0.956428 0.0368654 0)
(1.02131 0.0395025 -1.94075e-18)
(1.05463 0.0441054 -2.07482e-17)
(1.05053 0.0508035 -2.20976e-17)
(1.04464 0.0583687 8.33894e-17)
(1.04223 0.0663631 -4.31005e-17)
(1.03999 0.0750097 -4.18944e-17)
(1.03702 0.0844905 4.3307e-17)
(1.03366 0.0948791 -8.4191e-17)
(1.03016 0.106264 1.68786e-16)
(1.0266 0.118772 1.85147e-22)
(1.02305 0.132547 -8.47999e-17)
(1.01966 0.147738 0)
(1.01657 0.164484 8.52097e-17)
(1.01391 0.182886 -1.70831e-16)
(1.01178 0.202917 8.56221e-17)
(1.01031 0.224133 0)
(1.00924 0.245329 0)
(1.98437 0.0474941 -5.55818e-18)
(1.15416 0.0230366 4.37353e-18)
(0.955058 0.0249791 0)
(1.0295 0.0381245 2.07824e-17)
(1.0595 0.0462615 -2.02167e-17)
(1.05394 0.053543 -4.05604e-17)
(1.04881 0.061994 -2.51034e-22)
(1.04715 0.0710736 8.16413e-17)
(1.04551 0.0806624 -8.19033e-17)
(1.04329 0.0909736 4.10833e-17)
(1.04089 0.102157 -8.24316e-17)
(1.03854 0.11432 8.26977e-17)
(1.03632 0.127585 -8.29654e-17)
(1.03436 0.142083 8.32344e-17)
(1.03283 0.157945 8.35048e-17)
(1.03192 0.175285 -8.37767e-17)
(1.03185 0.194182 0)
(1.0328 0.214635 -8.43242e-17)
(1.03503 0.236359 8.46005e-17)
(1.03835 0.258192 8.48536e-17)
(0.83408 0.0208814 0)
(0.796501 0.0231099 0)
(0.751366 0.0256668 4.23986e-17)
(0.696601 0.0286053 -2.30138e-17)
(0.629429 0.0319325 -2.5166e-17)
(0.546308 0.0354928 4.16331e-17)
(0.443466 0.0387204 -1.54625e-17)
(0.31726 0.0402517 3.48936e-17)
(0.166371 0.0373375 0)
(0.0465757 0.0211919 0)
(0.838774 0.06053 -1.83969e-17)
(0.801935 0.0673159 -5.92967e-17)
(0.757537 0.0751333 -2.13264e-17)
(0.703659 0.0841399 2.31512e-17)
(0.637525 0.0943628 2.53121e-17)
(0.555548 0.105322 -5.58216e-17)
(0.453827 0.115315 4.66328e-17)
(0.328464 0.12016 -8.76483e-17)
(0.177092 0.111164 -1.00374e-17)
(0.0529223 0.0633062 6.41711e-17)
(0.848732 0.0993707 1.84729e-17)
(0.813268 0.110542 -1.98475e-17)
(0.770297 0.123444 4.28316e-17)
(0.718144 0.138308 4.65022e-17)
(0.654022 0.155176 -5.08519e-17)
(0.57426 0.173241 -2.80398e-17)
(0.474693 0.189684 3.12409e-17)
(0.35077 0.197543 -5.28559e-17)
(0.198403 0.182133 8.07332e-17)
(0.0656251 0.103894 -1.52573e-16)
(0.864297 0.136548 3.69721e-17)
(0.830735 0.151931 0)
(0.789769 0.169696 0)
(0.740065 0.190114 -4.65372e-17)
(0.678804 0.213242 5.089e-17)
(0.602179 0.237941 2.06827e-21)
(0.505636 0.260289 0)
(0.383628 0.270653 7.05378e-17)
(0.229708 0.248757 -6.06014e-17)
(0.0842775 0.141727 1.87955e-16)
(0.885175 0.170801 -3.68768e-17)
(0.853969 0.190078 0)
(0.815502 0.212367 8.54867e-17)
(0.768874 0.237924 0)
(0.7112 0.266819 5.07338e-17)
(0.638492 0.297578 5.59464e-17)
(0.545693 0.325203 0)
(0.42598 0.337524 1.40573e-16)
(0.269926 0.309198 -2.01254e-17)
(0.108174 0.175667 -7.01975e-17)
(0.910638 0.201212 1.96121e-21)
(0.882164 0.223957 -1.57503e-16)
(0.846614 0.250325 -2.61449e-21)
(0.803586 0.280501 0)
(0.750096 0.314563 -5.04012e-17)
(0.681929 0.350699 -5.55584e-17)
(0.593433 0.382864 0)
(0.476282 0.396512 -1.39494e-16)
(0.317543 0.361832 -1.59645e-16)
(0.136355 0.204735 2.31867e-17)
(0.939696 0.227146 7.28285e-22)
(0.914227 0.252887 1.07703e-21)
(0.88192 0.282832 1.68288e-16)
(0.842903 0.317054 -1.24926e-21)
(0.79404 0.355618 -9.97678e-17)
(0.73086 0.39636 -1.09934e-16)
(0.64704 0.432214 -3.05896e-17)
(0.532577 0.446439 3.44601e-17)
(0.370669 0.405432 1.18228e-16)
(0.167619 0.228157 2.28688e-16)
(0.971232 0.248261 -1.72805e-21)
(0.948861 0.276568 7.70468e-17)
(0.920001 0.309589 -1.66138e-16)
(0.885269 0.347277 -4.50556e-17)
(0.841295 0.389659 2.46033e-16)
(0.783353 0.434185 1.08386e-16)
(0.704406 0.47279 -1.20541e-16)
(0.592671 0.486745 0)
(0.427228 0.439385 3.87515e-17)
(0.200617 0.245496 -4.04262e-16)
(1.0041 0.264649 -1.19971e-21)
(0.984387 0.295094 -7.5853e-17)
(0.959004 0.330757 3.92775e-21)
(0.928689 0.371406 -8.86398e-17)
(0.889749 0.416983 9.67541e-17)
(0.837275 0.464528 5.32474e-17)
(0.763479 0.504992 5.91806e-17)
(0.65465 0.517868 -3.32717e-17)
(0.485407 0.464088 3.79589e-17)
(0.234022 0.256849 1.75755e-16)
(1.03629 0.277919 -6.93948e-17)
(1.01813 0.310033 -7.44549e-17)
(0.996388 0.347965 8.02125e-17)
(0.970648 0.391092 8.69173e-17)
(0.937026 0.439134 -1.89668e-16)
(0.890479 0.488625 0)
(0.822267 0.529564 0)
(0.71636 0.540031 -3.25231e-17)
(0.542556 0.479484 3.70551e-17)
(0.265787 0.261979 0)
(1.06566 0.298513 6.78677e-17)
(1.04818 0.331637 7.28962e-17)
(1.03 0.369899 0)
(1.00814 0.41321 -8.52621e-17)
(0.978991 0.460473 0)
(0.937104 0.507433 -1.02585e-16)
(0.87262 0.543514 -5.70588e-17)
(0.767433 0.546929 -6.42335e-17)
(0.58814 0.478706 -1.46803e-16)
(0.290207 0.257382 1.70307e-16)
(1.09713 0.316974 1.58927e-21)
(1.08323 0.350673 -1.48252e-16)
(1.06858 0.388438 2.19031e-21)
(1.0502 0.430661 8.67435e-17)
(1.02447 0.475334 0)
(0.985243 0.517352 1.04438e-16)
(0.921399 0.545704 0)
(0.813176 0.539259 1.30925e-16)
(0.625589 0.461994 1.52247e-20)
(0.308157 0.242753 -1.73797e-16)
(1.12989 0.331339 6.99881e-17)
(1.12004 0.364568 -7.51908e-17)
(1.10881 0.401131 2.43325e-16)
(1.09347 0.441246 -8.80248e-17)
(1.07024 0.482148 -9.62064e-17)
(1.03222 0.51804 -5.30198e-17)
(0.967181 0.537674 2.38842e-21)
(0.854108 0.52088 6.6529e-17)
(0.657212 0.435085 2.66419e-16)
(0.321582 0.222246 4.42167e-17)
(1.16369 0.340761 -1.41643e-16)
(1.15758 0.372797 0)
(1.14939 0.407404 -4.49143e-21)
(1.13645 0.444411 8.91097e-17)
(1.11467 0.480466 2.43554e-16)
(1.07643 0.509301 5.36995e-17)
(1.00859 0.519721 1.19619e-16)
(0.889223 0.4929 -1.01155e-16)
(0.682314 0.400169 -1.93031e-16)
(0.330371 0.197797 1.79505e-16)
(1.19779 0.344928 7.14924e-17)
(1.19486 0.375099 7.6814e-17)
(1.18909 0.407007 -1.65774e-16)
(1.17767 0.439994 -4.49963e-17)
(1.15606 0.470255 -1.96795e-16)
(1.11599 0.491273 -1.62762e-16)
(1.04358 0.492231 -2.41771e-16)
(0.916431 0.45608 1.3636e-16)
(0.699109 0.358554 0)
(0.333889 0.170633 -2.04385e-16)
(1.23119 0.343636 1.07972e-16)
(1.23075 0.37133 0)
(1.22653 0.39987 0)
(1.21551 0.428072 0)
(1.19262 0.451824 0)
(1.14898 0.464578 1.09324e-16)
(1.07024 0.456207 1.21821e-16)
(0.934073 0.411836 0)
(0.706473 0.311967 0)
(0.331934 0.142016 -9.16291e-17)
(1.26284 0.336909 -3.61442e-17)
(1.26401 0.361593 -8.67397e-22)
(1.26029 0.386195 -4.19143e-17)
(1.24836 0.409029 4.55123e-17)
(1.22262 0.425826 -4.97783e-17)
(1.1737 0.430229 1.37279e-16)
(1.08708 0.413088 -3.06e-17)
(0.941074 0.362001 6.90606e-17)
(0.703984 0.262384 -1.97881e-17)
(0.324694 0.113191 9.21392e-17)
(1.29166 0.325001 7.24023e-17)
(1.29342 0.346249 -3.88984e-17)
(1.28899 0.366474 0)
(1.27472 0.383554 -4.55885e-17)
(1.24452 0.393232 0)
(1.18873 0.389544 -5.50075e-17)
(1.09303 0.364571 -3.06522e-17)
(0.936925 0.308577 3.45924e-17)
(0.691794 0.211795 0)
(0.312644 0.0852826 -1.15404e-17)
(1.31662 0.308372 -5.42416e-17)
(1.31785 0.325885 3.88545e-17)
(1.31145 0.341432 0)
(1.29342 0.352571 0)
(1.25731 0.355218 4.98018e-17)
(1.19338 0.344007 -2.74703e-17)
(1.08787 0.312451 -3.06145e-17)
(0.92201 0.253573 -6.91032e-17)
(0.670775 0.162099 3.96013e-17)
(0.296535 0.0592781 -5.18586e-17)
(1.33707 0.287646 5.40393e-17)
(1.33675 0.301141 -5.69141e-22)
(1.32717 0.311725 -2.08852e-17)
(1.30404 0.316793 0)
(1.26066 0.312638 -2.48016e-17)
(1.1875 0.294713 -1.36777e-17)
(1.07173 0.258154 3.81075e-17)
(0.896761 0.198714 8.59989e-18)
(0.641601 0.115028 -4.43477e-17)
(0.276874 0.036025 5.16101e-17)
(1.07958 0.274421 -4.17785e-16)
(1.10871 0.291131 1.03343e-16)
(1.13836 0.304549 0)
(1.16892 0.313765 1.02221e-16)
(1.20001 0.318516 -3.33794e-23)
(1.23071 0.318616 -1.56286e-18)
(1.26014 0.31403 7.77459e-19)
(1.28739 0.304914 -4.99359e-17)
(1.3116 0.291591 4.97784e-17)
(1.33204 0.274619 -2.46423e-17)
(1.08975 0.26188 2.08351e-16)
(1.1166 0.275895 0)
(1.14381 0.287309 0)
(1.17178 0.295282 1.00485e-16)
(1.20042 0.299511 1.57105e-18)
(1.2289 0.299828 -7.80721e-19)
(1.25644 0.296182 7.76765e-19)
(1.28228 0.288673 4.87385e-17)
(1.30569 0.277536 -4.93596e-17)
(1.32585 0.263282 2.46272e-17)
(1.09949 0.251303 0)
(1.12377 0.263069 -1.02978e-16)
(1.1485 0.27245 1.02045e-16)
(1.17395 0.279004 -1.01238e-16)
(1.20015 0.282452 0)
(1.22639 0.282645 -7.81025e-19)
(1.25198 0.279532 -9.8712e-17)
(1.27628 0.27318 0)
(1.29872 0.263762 0)
(1.31841 0.251734 -2.46548e-17)
(1.10812 0.24109 0)
(1.13024 0.250854 1.17129e-21)
(1.15271 0.258486 -1.01962e-16)
(1.17579 0.263786 1.012e-16)
(1.19965 0.266513 7.85528e-19)
(1.22366 0.266538 -1.00783e-16)
(1.24728 0.263815 -2.6574e-22)
(1.26996 0.258387 0)
(1.29126 0.250381 0)
(1.3103 0.240192 0)
(1.11528 0.231127 -1.03583e-16)
(1.13558 0.239253 2.05411e-16)
(1.1561 0.245455 7.95905e-19)
(1.17712 0.249688 -1.01952e-16)
(1.19884 0.251767 -7.85538e-19)
(1.22079 0.251593 -1.00036e-16)
(1.24251 0.249133 1.50196e-16)
(1.26359 0.244419 -3.87787e-19)
(1.28367 0.237546 -4.91232e-17)
(1.30191 0.228851 -2.47109e-17)
(1.12104 0.221375 2.06776e-16)
(1.13975 0.228205 -1.0257e-16)
(1.15858 0.233274 1.01793e-16)
(1.17781 0.236636 1.00334e-16)
(1.19766 0.238162 1.02122e-16)
(1.21776 0.237788 9.92881e-17)
(1.23775 0.2355 -4.98368e-17)
(1.25729 0.231326 -3.88113e-19)
(1.27614 0.225347 3.86897e-19)
(1.29349 0.217855 2.47387e-17)
(1.12556 0.21183 -1.03597e-16)
(1.14284 0.217614 -1.02033e-16)
(1.1602 0.22179 -1.01711e-16)
(1.17788 0.224461 -1.01086e-16)
(1.1961 0.225544 -9.97671e-17)
(1.21457 0.225001 9.85399e-17)
(1.23299 0.222837 -4.90884e-17)
(1.25112 0.219084 0)
(1.26877 0.213816 9.92203e-17)
(1.28521 0.20729 0)
(1.12898 0.202507 0)
(1.14498 0.207434 1.02298e-16)
(1.16103 0.210902 -1.01627e-16)
(1.17736 0.213034 7.89427e-19)
(1.19417 0.213774 -1.02125e-16)
(1.21121 0.213107 -1.00138e-16)
(1.22825 0.211049 5.0678e-17)
(1.24509 0.207638 -4.97627e-17)
(1.26162 0.202943 -9.93207e-17)
(1.27714 0.197201 0)
(1.13144 0.193428 -1.02805e-16)
(1.14629 0.197649 0)
(1.16118 0.200553 1.01544e-16)
(1.17633 0.202265 1.01799e-16)
(1.19191 0.202749 1.2545e-22)
(1.20769 0.202 9.93897e-17)
(1.2235 0.200045 0)
(1.23919 0.196921 4.98044e-17)
(1.25468 0.192701 4.99047e-17)
(1.26934 0.187602 -2.50171e-17)
(1.13308 0.184612 1.02613e-16)
(1.14689 0.188248 -1.02027e-16)
(1.16075 0.190702 1.0146e-16)
(1.17486 0.192088 -1.00183e-16)
(1.18935 0.192384 1.9954e-16)
(1.20403 0.191591 -9.86406e-17)
(1.21876 0.189739 -7.80632e-19)
(1.23342 0.186869 -3.89422e-19)
(1.24796 0.183049 -4.93724e-17)
(1.2618 0.178486 2.48512e-17)
(1.13402 0.176072 0)
(1.14689 0.179224 1.01893e-16)
(1.15983 0.181316 -1.01378e-16)
(1.17302 0.18245 -7.88539e-19)
(1.18654 0.182611 -9.89853e-17)
(1.20026 0.181803 -7.83135e-19)
(1.21404 0.180059 -7.81099e-19)
(1.22777 0.177417 7.79512e-19)
(1.24145 0.173944 4.98114e-17)
(1.25453 0.169835 2.48795e-17)
(1.13438 0.167819 1.02628e-16)
(1.1464 0.170568 -3.97498e-19)
(1.15852 0.172368 0)
(1.17088 0.173307 0)
(1.18355 0.173374 7.85597e-19)
(1.1964 0.172575 -5.1704e-17)
(1.20933 0.17094 1.3046e-23)
(1.22224 0.168508 5.03205e-17)
(1.23514 0.165341 3.8955e-19)
(1.24752 0.161625 -2.49077e-17)
(1.13424 0.159857 -1.02039e-16)
(1.14551 0.162272 -1.01624e-16)
(1.15688 0.163837 -1.01211e-16)
(1.1685 0.164625 -7.87945e-19)
(1.18041 0.164628 1.2881e-23)
(1.19249 0.163854 5.01542e-17)
(1.20466 0.16233 7.82076e-19)
(1.21684 0.160091 9.68455e-23)
(1.22902 0.157199 0)
(1.24076 0.153825 0)
(1.1337 0.152189 -1.02246e-16)
(1.14429 0.154326 2.03378e-16)
(1.15499 0.155699 1.01129e-16)
(1.16594 0.15637 0)
(1.17716 0.156333 -9.97733e-17)
(1.18856 0.155595 4.93873e-17)
(1.20005 0.154182 0)
(1.21156 0.152124 -5.04051e-17)
(1.2231 0.149479 -2.45914e-17)
(1.23424 0.146409 0)
(1.13284 0.144813 1.02056e-16)
(1.14281 0.146718 -1.01754e-16)
(1.1529 0.147936 0)
(1.16325 0.148517 9.99942e-17)
(1.17386 0.148457 1.0056e-16)
(1.18463 0.147763 -1.00376e-16)
(1.1955 0.146456 -4.93312e-17)
(1.20641 0.144567 0)
(1.21736 0.142147 2.5007e-17)
(1.22797 0.139349 0)
(1.13171 0.137725 1.01469e-16)
(1.14112 0.139436 0)
(1.15067 0.140528 0)
(1.16047 0.14104 -9.99565e-17)
(1.17052 0.140969 -1.08006e-23)
(1.18072 0.140322 4.86363e-17)
(1.19104 0.13912 5.09286e-17)
(1.2014 0.137387 -3.91394e-19)
(1.21182 0.135173 1.9557e-19)
(1.22193 0.13262 1.9548e-19)
(1.13037 0.130918 -2.02562e-16)
(1.13928 0.132468 1.01091e-16)
(1.14834 0.133455 7.88126e-19)
(1.15764 0.133914 -7.86765e-19)
(1.16717 0.133842 -5.02805e-17)
(1.17687 0.133246 0)
(1.18668 0.132142 0)
(1.19654 0.130555 5.0141e-17)
(1.20646 0.12853 0)
(1.21611 0.126199 0)
(1.12888 0.124385 1.01488e-16)
(1.13733 0.125798 -1.01353e-16)
(1.14593 0.126701 7.87481e-19)
(1.15478 0.12712 -1.0224e-16)
(1.16385 0.127053 5.10664e-17)
(1.17308 0.126507 0)
(1.18242 0.125498 -7.8448e-19)
(1.19182 0.124045 -4.97912e-17)
(1.2013 0.122193 1.95968e-19)
(1.21053 0.120063 1.95927e-19)
(1.12726 0.118117 -1.013e-16)
(1.1353 0.119415 3.93855e-19)
(1.14349 0.120248 -1.00716e-16)
(1.15192 0.120636 1.00629e-16)
(1.16057 0.120579 7.85637e-19)
(1.16937 0.120083 -7.85255e-19)
(1.17829 0.119162 4.9453e-17)
(1.18727 0.117834 7.8478e-19)
(1.19633 0.11614 0)
(1.20517 0.114194 0)
(1.12555 0.112103 -3.9314e-19)
(1.13321 0.113303 1.01087e-16)
(1.14103 0.114078 1.00633e-16)
(1.14909 0.114443 -1.01376e-16)
(1.15735 0.114399 5.10669e-17)
(1.16576 0.113951 0)
(1.17428 0.113113 -5.02689e-17)
(1.18288 0.111902 -3.92717e-19)
(1.19155 0.110353 3.92731e-19)
(1.20002 0.108575 0)
(1.12379 0.106333 3.92974e-19)
(1.13111 0.10745 -1.00955e-16)
(1.13858 0.108176 -1.00551e-16)
(1.14629 0.108524 1.00552e-16)
(1.1542 0.108494 -1.00563e-16)
(1.16225 0.108093 0)
(1.17041 0.107332 0)
(1.17865 0.106227 -3.93049e-19)
(1.18696 0.104812 -2.49637e-17)
(1.1951 0.103187 2.53613e-17)
(1.12199 0.100796 9.99554e-17)
(1.129 0.101841 -1.00038e-16)
(1.13616 0.102526 1.00469e-16)
(1.14355 0.102861 -5.10422e-17)
(1.15113 0.102847 7.85681e-19)
(1.15885 0.10249 0)
(1.16668 0.101801 -5.0331e-17)
(1.17458 0.100795 -3.93381e-19)
(1.18257 0.0995021 2.55795e-17)
(1.1904 0.0980173 -2.51934e-17)
(1.12018 0.0954818 0)
(1.1269 0.0964631 1.00299e-16)
(1.13377 0.0971127 -1.00386e-16)
(1.14087 0.0974378 5.10227e-17)
(1.14815 0.0974399 4.94961e-17)
(1.15556 0.0971249 0)
(1.16309 0.0965027 4.95751e-17)
(1.17069 0.0955869 3.93721e-19)
(1.17836 0.094407 1.9697e-19)
(1.1859 0.0930505 1.97051e-19)
(1.11837 0.0903779 3.90536e-19)
(1.12482 0.0913039 -3.91284e-19)
(1.13144 0.0919228 1.00304e-16)
(1.13827 0.0922403 7.84661e-19)
(1.14527 0.092258 -5.02819e-17)
(1.1524 0.091982 4.9554e-17)
(1.15965 0.0914215 -4.96057e-17)
(1.16696 0.0905892 2.4037e-17)
(1.17435 0.0895128 5.91506e-19)
(1.18162 0.0882739 -1.97277e-19)
(1.11658 0.0854739 9.94037e-17)
(1.12279 0.0863505 3.90773e-19)
(1.12917 0.0869423 0)
(1.13575 0.0872536 0)
(1.14249 0.0872863 2.35217e-23)
(1.14937 0.0870466 -5.03574e-17)
(1.15635 0.086543 1.0006e-16)
(1.1634 0.0857875 3.94401e-19)
(1.17052 0.0848062 1.97373e-19)
(1.17754 0.0836753 1.28377e-17)
(1.11481 0.080759 -9.92212e-17)
(1.12081 0.081591 -3.90263e-19)
(1.12696 0.0821584 -5.00699e-17)
(1.13331 0.0824643 0)
(1.13982 0.0825111 5.02821e-17)
(1.14646 0.0823048 0)
(1.1532 0.0818536 -4.96668e-17)
(1.16 0.0811688 -2.6446e-17)
(1.16688 0.0802748 3.95146e-19)
(1.17366 0.079243 1.35401e-23)
(1.11309 0.0762227 -9.98155e-17)
(1.11888 0.0770139 3.89753e-19)
(1.12483 0.0775587 5.00289e-17)
(1.13097 0.0778597 -7.83759e-19)
(1.13726 0.0779194 7.85661e-19)
(1.14368 0.0777438 0)
(1.15019 0.0773407 -7.88846e-19)
(1.15677 0.0767208 3.95055e-19)
(1.16342 0.0759071 1.97777e-19)
(1.16998 0.0749662 -1.24713e-17)
(1.11141 0.0718546 9.88573e-17)
(1.11702 0.0726079 3.89245e-19)
(1.12278 0.0731316 -7.81057e-19)
(1.12873 0.0734277 1.56692e-18)
(1.13482 0.0734989 -7.85661e-19)
(1.14103 0.0733513 0)
(1.14733 0.0729923 -2.52587e-17)
(1.15371 0.072432 0)
(1.16014 0.0716921 0)
(1.16649 0.0708348 1.26839e-17)
(1.10979 0.0676448 4.95315e-17)
(1.11523 0.0683624 0)
(1.12081 0.0688659 0)
(1.12658 0.0691568 -7.83156e-19)
(1.13249 0.0692382 -4.94964e-17)
(1.13851 0.0691159 0)
(1.14462 0.0687972 2.60641e-17)
(1.1508 0.0682916 -1.18716e-18)
(1.15703 0.0676196 3.96364e-19)
(1.1632 0.0668391 -1.26985e-17)
(1.10823 0.0635837 -9.92679e-17)
(1.11351 0.0642673 3.88231e-19)
(1.11894 0.064751 7.79778e-19)
(1.12454 0.0650363 -5.16685e-17)
(1.13027 0.0651263 1.02135e-16)
(1.13612 0.0650269 -7.88153e-19)
(1.14205 0.0647448 2.52899e-17)
(1.14805 0.0642894 -3.96055e-19)
(1.1541 0.0636798 1.98387e-19)
(1.16009 0.06297 1.98644e-19)
(1.10673 0.059662 4.89649e-17)
(1.11186 0.0603127 3.87726e-19)
(1.11715 0.0607769 0)
(1.1226 0.0610559 4.9301e-17)
(1.12817 0.061153 -4.94963e-17)
(1.13386 0.0610739 2.52292e-17)
(1.13963 0.0608253 1.86742e-24)
(1.14546 0.0604158 -3.96391e-19)
(1.15133 0.0598636 3.9718e-19)
(1.15716 0.0592189 0)
(1.1053 0.0558707 -3.84844e-19)
(1.1103 0.0564893 3.87222e-19)
(1.11545 0.056934 0)
(1.12076 0.0572059 -5.00641e-17)
(1.12619 0.0573086 7.85651e-19)
(1.13173 0.0572475 -5.12638e-17)
(1.13734 0.0570291 -2.53211e-17)
(1.14301 0.0566618 -2.57874e-17)
(1.14873 0.0561623 1.98796e-19)
(1.1544 0.0555775 1.99104e-19)
(1.10394 0.0522011 -4.95545e-17)
(1.10882 0.0527881 4.98864e-17)
(1.11385 0.0532131 0)
(1.11902 0.0534771 5.08267e-17)
(1.12432 0.0535838 -7.85654e-19)
(1.12972 0.0535385 2.5246e-17)
(1.13519 0.0533475 0)
(1.14072 0.0530186 2.50152e-17)
(1.1463 0.0525677 5.96997e-19)
(1.15182 0.0520381 -1.99335e-19)
(1.10266 0.0486448 4.86973e-17)
(1.10743 0.0492004 3.86173e-19)
(1.11234 0.0496053 7.77223e-19)
(1.1174 0.0498606 -7.81648e-19)
(1.12257 0.0499698 0)
(1.12784 0.0499383 2.52544e-17)
(1.13318 0.0497719 -2.61446e-17)
(1.13858 0.0494782 2.58313e-17)
(1.14402 0.049072 1.99206e-19)
(1.14941 0.0485934 1.29718e-17)
(1.10145 0.0451938 -4.89913e-17)
(1.10612 0.0457181 -4.93712e-17)
(1.11092 0.0461025 0)
(1.11587 0.046348 0)
(1.12093 0.0464584 0)
(1.12608 0.0464386 -5.05255e-17)
(1.13131 0.0462944 7.92747e-19)
(1.13658 0.0460329 -2.66487e-17)
(1.14189 0.0456677 3.98821e-19)
(1.14717 0.0452363 -1.2787e-17)
(1.10032 0.0418403 -3.82003e-19)
(1.10489 0.0423333 3.85213e-19)
(1.1096 0.0426966 -7.75948e-19)
(1.11445 0.0429315 7.81041e-19)
(1.11941 0.0430415 7.8564e-19)
(1.12445 0.0430317 -7.89721e-19)
(1.12956 0.0429073 2.45904e-17)
(1.13472 0.0426752 3.98085e-19)
(1.13992 0.0423479 3.99233e-19)
(1.14508 0.04196 0)
(1.09927 0.0385768 4.8432e-17)
(1.10376 0.0390382 3.84713e-19)
(1.10838 0.03938 2.481e-17)
(1.11313 0.0396033 7.80732e-19)
(1.11799 0.0397117 -4.87355e-24)
(1.12294 0.0397101 -7.89983e-19)
(1.12795 0.0396035 0)
(1.13301 0.0393981 0)
(1.13809 0.0391058 1.27886e-17)
(1.14315 0.0387582 0)
(1.09829 0.0353961 3.8066e-19)
(1.1027 0.0358257 -3.84215e-19)
(1.10725 0.0361453 -2.55644e-17)
(1.11192 0.0363561 4.67595e-24)
(1.11669 0.0364618 7.85637e-19)
(1.12154 0.0364667 2.52878e-17)
(1.12646 0.0363758 2.5415e-17)
(1.13142 0.036195 -3.98759e-19)
(1.13641 0.035935 -1.24018e-17)
(1.14138 0.0356247 0)
(1.0974 0.0322914 -3.7997e-19)
(1.10174 0.0326888 3.83717e-19)
(1.10621 0.0329855 -2.47693e-17)
(1.1108 0.033183 0)
(1.1155 0.0332847 0)
(1.12027 0.0332948 0)
(1.1251 0.0332178 -2.54307e-17)
(1.12998 0.0330593 -1.31703e-17)
(1.13488 0.0328292 4.00474e-19)
(1.13975 0.0325536 0)
(1.09658 0.0292558 -3.79281e-19)
(1.10086 0.0296206 3.8322e-19)
(1.10526 0.0298939 2.39756e-17)
(1.10979 0.0300772 4.49463e-24)
(1.11441 0.0301737 7.85627e-19)
(1.11911 0.0301877 0)
(1.12386 0.0301231 7.95198e-19)
(1.12866 0.029985 1.15838e-17)
(1.13348 0.0297825 -1.24275e-17)
(1.13828 0.0295392 0)
(1.09584 0.0262828 0)
(1.10006 0.0266145 2.44943e-17)
(1.10441 0.0268638 2.47287e-17)
(1.10887 0.0270321 -7.79513e-19)
(1.11343 0.0271226 7.85622e-19)
(1.11806 0.0271391 0)
(1.12275 0.0270854 1.35267e-17)
(1.12747 0.0269661 -1.19935e-18)
(1.13222 0.0267893 1.30424e-17)
(1.13694 0.0265761 2.01199e-19)
(1.09518 0.0233662 -3.7791e-19)
(1.09935 0.0236643 -2.40804e-17)
(1.10365 0.0238889 -2.39362e-17)
(1.10805 0.0240415 -4.34896e-24)
(1.11255 0.0241251 -7.85616e-19)
(1.11713 0.0241431 0)
(1.12175 0.0240989 -1.35351e-17)
(1.12641 0.0239968 4.00127e-19)
(1.13109 0.0238439 6.02582e-19)
(1.13575 0.0236589 -2.01434e-19)
(1.0946 0.0204996 3.77228e-19)
(1.09872 0.0207636 -3.81735e-19)
(1.10298 0.020963 0)
(1.10733 0.0210993 0)
(1.11178 0.0211751 0)
(1.1163 0.0211936 -1.26648e-17)
(1.12087 0.0211579 -1.27468e-17)
(1.12547 0.0210715 -4.00464e-19)
(1.13009 0.0209409 2.01071e-19)
(1.1347 0.0207824 2.0167e-19)
(1.09409 0.017677 -3.76547e-19)
(1.09818 0.0179065 3.81242e-19)
(1.10239 0.0180802 1.31048e-17)
(1.10671 0.0181995 -1.32362e-17)
(1.11111 0.0182668 0)
(1.11558 0.018285 2.53379e-17)
(1.12011 0.0182566 1.27547e-17)
(1.12466 0.0181849 6.01212e-18)
(1.12923 0.0180752 -6.23963e-18)
(1.13378 0.0179416 2.01907e-19)
(1.09366 0.0148925 -1.24037e-17)
(1.09772 0.0150869 1.25647e-17)
(1.10189 0.0152344 -1.23238e-17)
(1.10618 0.0153362 2.4127e-17)
(1.11054 0.0153945 7.85595e-19)
(1.11497 0.0154116 -2.53462e-17)
(1.11945 0.0153897 6.38127e-18)
(1.12396 0.0153315 -6.81957e-18)
(1.12849 0.0152415 6.8506e-18)
(1.133 0.0151315 0)
(1.0933 0.01214 1.23813e-17)
(1.09733 0.012299 -3.80261e-19)
(1.10148 0.0124199 -7.696e-19)
(1.10574 0.0125039 -1.16698e-17)
(1.11007 0.0125526 0)
(1.11447 0.012568 1.26773e-17)
(1.11891 0.0125518 -7.18336e-18)
(1.12339 0.0125062 -5.21943e-18)
(1.12787 0.0124348 -6.05096e-19)
(1.13235 0.0123471 2.02381e-19)
(1.09301 0.00941369 -1.19845e-17)
(1.09703 0.00953705 -2.1144e-24)
(1.10116 0.00963121 7.68967e-19)
(1.10539 0.00969702 -1.55536e-18)
(1.1097 0.00973576 1.57115e-18)
(1.11407 0.00974883 -7.13331e-18)
(1.11848 0.00973761 5.59051e-18)
(1.12293 0.00970367 3.61655e-18)
(1.12738 0.00964984 3.83627e-18)
(1.13183 0.00958342 -2.02619e-19)
(1.0928 0.00670785 1.15891e-17)
(1.0968 0.00679532 -1.17576e-17)
(1.10092 0.00686246 0)
(1.10513 0.00690978 0)
(1.10942 0.0069381 7.85567e-19)
(1.11377 0.00694835 5.54995e-18)
(1.11816 0.00694146 -6.3931e-18)
(1.12258 0.00691849 2.81528e-18)
(1.12702 0.00688143 -3.03179e-18)
(1.13144 0.00683539 2.02858e-19)
(1.09266 0.00401661 3.73171e-19)
(1.09666 0.00406788 -3.78789e-19)
(1.10076 0.00410763 3.07082e-18)
(1.10496 0.00413603 -7.77061e-19)
(1.10923 0.00415344 3.14224e-18)
(1.11357 0.00416034 -2.37933e-18)
(1.11795 0.00415722 0)
(1.12236 0.00414468 -4.02527e-19)
(1.12677 0.00412383 4.04663e-19)
(1.13118 0.00409765 -8.12386e-19)
(1.09259 0.00133591 -3.73529e-19)
(1.09658 0.00135185 3.79378e-19)
(1.10068 0.00136449 -3.8466e-18)
(1.10487 0.00137377 7.79092e-19)
(1.10914 0.00137974 -1.57593e-18)
(1.11347 0.00138251 1.59172e-18)
(1.11784 0.00138221 0)
(1.12224 0.00137895 -4.0418e-19)
(1.12665 0.00137309 2.03209e-19)
(1.13105 0.00136552 1.02004e-18)
(2.00728 0.0446419 0)
(1.12439 0.00948915 0)
(0.964033 0.0171989 0)
(1.04289 0.038846 0)
(1.06299 0.0485391 0)
(1.05559 0.0552551 0)
(1.05186 0.0638866 0)
(1.05095 0.0734694 0)
(1.04978 0.0834091 0)
(1.04824 0.093937 0)
(1.04671 0.105277 0)
(1.04536 0.11754 0)
(1.04427 0.130829 0)
(1.04358 0.145256 0)
(1.04347 0.160933 0)
(1.04416 0.177947 0)
(1.04591 0.196341 0)
(1.0491 0.216049 0)
(1.05423 0.236734 0)
(1.06096 0.257033 0)
(2.01567 0.0285899 0)
(1.10671 0.0147485 0)
(0.967114 0.0223727 0)
(1.04864 0.0388607 0)
(1.06411 0.0484023 0)
(1.05634 0.0559992 0)
(1.05371 0.064837 0)
(1.05341 0.0744004 0)
(1.0527 0.0843371 0)
(1.05176 0.0948262 0)
(1.05097 0.106043 0)
(1.05041 0.118083 0)
(1.05019 0.131035 0)
(1.05046 0.144989 0)
(1.0514 0.160024 0)
(1.05322 0.176193 0)
(1.05619 0.193489 0)
(1.06067 0.211753 0)
(1.06707 0.230426 0)
(1.0745 0.247915 0)
(2.02031 0.0170456 0)
(1.09715 0.0189585 0)
(0.965831 0.0264184 0)
(1.0498 0.0384915 0)
(1.06405 0.0479451 0)
(1.05655 0.056368 0)
(1.05479 0.0653649 0)
(1.05512 0.0748625 0)
(1.05497 0.0847504 0)
(1.05468 0.0951527 0)
(1.05459 0.106194 0)
(1.05479 0.117958 0)
(1.05538 0.130517 0)
(1.05652 0.143938 0)
(1.05837 0.158274 0)
(1.06113 0.173542 0)
(1.06506 0.189694 0)
(1.07044 0.206527 0)
(1.07761 0.22344 0)
(1.0858 0.238962 0)
(2.02397 0.0119015 0)
(1.09223 0.0194292 0)
(0.963661 0.027377 0)
(1.04938 0.0378332 0)
(1.06352 0.0473694 0)
(1.05637 0.056267 0)
(1.0553 0.0653918 0)
(1.05625 0.0748708 0)
(1.0567 0.0847103 0)
(1.05704 0.0950048 0)
(1.05762 0.105851 0)
(1.05854 0.117323 0)
(1.05987 0.129478 0)
(1.06178 0.142367 0)
(1.06441 0.156018 0)
(1.06797 0.170425 0)
(1.07266 0.185517 0)
(1.07872 0.201083 0)
(1.08642 0.216557 0)
(1.09515 0.230552 0)
(2.02735 0.00967543 0)
(1.08972 0.0188464 0)
(0.961941 0.0271872 0)
(1.04872 0.0370448 0)
(1.06293 0.046586 0)
(1.05605 0.0557152 0)
(1.0555 0.0649312 0)
(1.057 0.0744002 0)
(1.058 0.0841744 0)
(1.05893 0.094335 0)
(1.06013 0.104963 0)
(1.06169 0.116121 0)
(1.06369 0.127856 0)
(1.06627 0.140204 0)
(1.06959 0.153175 0)
(1.0738 0.166749 0)
(1.07909 0.180841 0)
(1.08566 0.195245 0)
(1.09373 0.209437 0)
(1.10281 0.222109 0)
(2.03068 0.0086594 0)
(1.08859 0.0182625 0)
(0.960824 0.0267125 0)
(1.04822 0.0362018 0)
(1.0625 0.0456431 0)