/*--------------------------------*- C++ -*----------------------------------*\
  =========                 |
  \\      /  F ield         | OpenFOAM: The Open Source CFD Toolbox
   \\    /   O peration     | Website:  https://openfoam.org
    \\  /    A nd           | Version:  6
     \\/     M anipulation  |
\*---------------------------------------------------------------------------*/
FoamFile
{
    version     2.0;
    format      ascii;
    class       surfaceScalarField;
    location    "1.25";
    object      phi;
}
// * * * * * * * * * * * * * * * * * * * * * * * * * * * * * * * * * * * * * //

dimensions      [0 3 -1 0 0 0 0];

internalField   nonuniform List<scalar> 
11030
(
0.00011999
4.82636e-07
0.000120075
-8.48284e-08
0.000119878
1.96445e-07
0.000119397
4.81214e-07
0.000118961
4.36057e-07
0.000118569
3.9198e-07
0.000118135
4.34107e-07
0.000117631
5.04415e-07
0.000117052
5.78707e-07
0.000116389
6.62814e-07
0.000115627
7.62071e-07
0.000114749
8.77648e-07
0.000113739
1.01059e-06
0.000112576
1.16291e-06
0.000111239
1.33711e-06
0.000109703
1.53573e-06
0.000107943
1.76057e-06
0.000105931
2.01115e-06
0.00010365
2.28146e-06
2.55034e-06
0.0001011
0.000120832
1.05189e-07
0.000120443
3.03401e-07
0.00011984
7.99837e-07
0.000119361
9.60486e-07
0.000118927
8.70064e-07
0.000118464
8.54642e-07
0.000117954
9.44585e-07
0.000117387
1.07124e-06
0.000116751
1.21484e-06
0.00011603
1.38376e-06
0.000115208
1.58377e-06
0.000114269
1.81666e-06
0.000113195
2.08485e-06
0.000111965
2.39231e-06
0.000110559
2.74382e-06
0.00010895
3.14419e-06
0.000107114
3.59688e-06
0.000105024
4.10067e-06
0.000102662
4.64339e-06
5.18712e-06
0.000100026
0.00012043
5.90617e-08
0.000120256
4.77013e-07
0.000119801
1.25485e-06
0.000119301
1.46026e-06
0.000118826
1.34525e-06
0.000118329
1.35156e-06
0.000117779
1.49445e-06
0.000117166
1.68431e-06
0.00011648
1.90145e-06
0.000115705
2.15812e-06
0.000114828
2.46145e-06
0.000113831
2.81387e-06
0.000112696
3.2191e-06
0.000111406
3.68294e-06
0.000109937
4.21232e-06
0.000108267
4.81422e-06
0.00010637
5.49367e-06
0.000104222
6.24888e-06
0.000101803
7.06202e-06
7.88116e-06
9.91094e-05
0.000120258
1.02335e-07
0.000120056
6.79107e-07
0.000119635
1.67595e-06
0.000119153
1.94199e-06
0.000118675
1.82354e-06
0.000118164
1.86229e-06
0.000117591
2.06736e-06
0.000116946
2.32929e-06
0.000116221
2.62721e-06
0.000115402
2.97717e-06
0.000114475
3.38784e-06
0.000113427
3.86238e-06
0.00011224
4.40572e-06
0.000110898
5.0254e-06
0.00010938
5.73036e-06
0.000107664
6.52956e-06
0.000105728
7.42951e-06
0.000103549
8.42793e-06
0.00010111
9.50166e-06
1.0587e-05
9.84039e-05
0.000120096
2.20163e-07
0.000119844
9.30568e-07
0.000119434
2.08632e-06
0.000118971
2.40489e-06
0.0001185
2.29494e-06
0.000117984
2.37806e-06
0.000117396
2.65573e-06
0.000116726
2.99929e-06
0.000115967
3.38618e-06
0.000115108
3.83573e-06
0.000114138
4.3579e-06
0.000113044
4.95643e-06
0.000111812
5.63736e-06
0.000110428
6.40982e-06
0.000108874
7.28449e-06
0.000107131
8.27205e-06
0.00010518
9.38027e-06
0.000103002
1.06063e-05
0.000100582
1.19219e-05
1.32538e-05
9.79151e-05
0.000119913
4.26417e-07
0.000119611
1.23243e-06
0.000119222
2.4753e-06
0.000118787
2.83977e-06
0.000118328
2.75458e-06
0.000117808
2.89719e-06
0.000117204
3.25973e-06
0.000116508
3.69549e-06
0.000115715
4.17989e-06
0.000114815
4.73492e-06
0.000113802
5.3716e-06
0.000112664
6.09414e-06
0.000111392
6.90957e-06
0.000109973
7.8284e-06
0.000108395
8.86273e-06
0.000106642
1.00246e-05
0.0001047
1.13228e-05
0.000102552
1.27537e-05
0.00010019
1.42847e-05
1.58352e-05
9.76083e-05
0.000119664
7.80217e-07
0.00011932
1.5758e-06
0.000119009
2.78641e-06
0.000118629
3.2201e-06
0.000118182
3.20193e-06
0.000117653
3.42578e-06
0.000117025
3.88742e-06
0.000116293
4.4273e-06
0.000115456
5.01755e-06
0.000114508
5.68238e-06
0.000113446
6.43415e-06
0.000112262
7.27771e-06
0.000110951
8.22109e-06
0.000109503
9.27595e-06
0.00010791
1.04555e-05
0.000106162
1.17726e-05
0.000104248
1.32367e-05
0.000102158
1.4844e-05
9.98848e-05
1.6558e-05
1.8295e-05
9.7425e-05
0.000119221
1.46853e-06
0.000118884
1.91263e-06
0.000118808
2.86266e-06
0.000118526
3.50153e-06
0.000118075
3.65278e-06
0.000117519
3.98222e-06
0.00011685
4.55589e-06
0.000116065
5.21244e-06
0.000115168
5.91521e-06
0.000114159
6.69071e-06
0.000113039
7.5542e-06
0.000111805
8.51184e-06
0.000110454
9.57265e-06
0.00010898
1.07492e-05
0.000107381
1.20552e-05
0.000105649
1.3504e-05
0.000103781
1.51053e-05
0.000101769
1.68554e-05
9.96101e-05
1.87171e-05
2.06106e-05
9.72944e-05
0.000118133
3.13879e-06
0.000118225
1.82111e-06
0.000118738
2.34901e-06
0.000118534
3.7056e-06
0.000118009
4.17796e-06
0.000117389
4.60261e-06
0.000116652
5.29298e-06
0.000115787
6.07698e-06
0.000114808
6.8937e-06
0.000113724
7.77479e-06
0.000112537
8.74177e-06
0.000111246
9.80267e-06
0.000109851
1.09672e-05
0.000108353
1.22481e-05
0.000106749
1.36589e-05
0.000105041
1.52124e-05
0.000103228
1.69178e-05
0.00010131
1.87731e-05
9.92852e-05
2.07422e-05
2.27453e-05
9.71506e-05
0.000116222
6.68989e-06
0.000118123
-7.94031e-08
0.000119155
1.3168e-06
0.000118689
4.17203e-06
0.000117975
4.89139e-06
0.000117236
5.34164e-06
0.000116385
6.14379e-06
0.000115413
7.04924e-06
0.000114339
7.96819e-06
0.000113171
8.94266e-06
0.000111912
1.0001e-05
0.000110562
1.11523e-05
0.000109123
1.2406e-05
0.000107597
1.37739e-05
0.000105988
1.52681e-05
0.000104302
1.68985e-05
0.000102548
1.86717e-05
0.000100735
2.05858e-05
9.88516e-05
2.2626e-05
9.68789e-05
2.4718e-05
9.04904e-05
1.06092e-05
7.97343e-05
1.07561e-05
6.88159e-05
1.09184e-05
5.77287e-05
1.10873e-05
4.64848e-05
1.12438e-05
3.51551e-05
1.13297e-05
2.39531e-05
1.1202e-05
1.34021e-05
1.05511e-05
4.61514e-06
8.78691e-06
4.61514e-06
8.94964e-05
2.11384e-05
7.8816e-05
2.14365e-05
6.79777e-05
2.17566e-05
5.69776e-05
2.20874e-05
4.58316e-05
2.23898e-05
3.46154e-05
2.25459e-05
2.35449e-05
2.22726e-05
1.31408e-05
2.09552e-05
4.5531e-06
1.73746e-05
9.16824e-06
8.86495e-05
3.15983e-05
7.80366e-05
3.20494e-05
6.72699e-05
3.25234e-05
5.6347e-05
3.30102e-05
4.52862e-05
3.34507e-05
3.41662e-05
3.36659e-05
2.32073e-05
3.32315e-05
1.29337e-05
3.12287e-05
4.46905e-06
2.58393e-05
1.36373e-05
8.79909e-05
4.20113e-05
7.74265e-05
4.26138e-05
6.6714e-05
4.32359e-05
5.58512e-05
4.38729e-05
4.48565e-05
4.44454e-05
3.38104e-05
4.4712e-05
2.29369e-05
4.4105e-05
1.27629e-05
4.14027e-05
4.40065e-06
3.42015e-05
1.80379e-05
8.75275e-05
5.23989e-05
7.69905e-05
5.31507e-05
6.63119e-05
5.39145e-05
5.54881e-05
5.46967e-05
4.45362e-05
5.53973e-05
3.35384e-05
5.57098e-05
2.27224e-05
5.49209e-05
1.26208e-05
5.15043e-05
4.34095e-06
4.24814e-05
2.23789e-05
8.72291e-05
6.27781e-05
7.67012e-05
6.36786e-05
6.60376e-05
6.45781e-05
5.52316e-05
6.55026e-05
4.42988e-05
6.63302e-05
3.33235e-05
6.66851e-05
2.25399e-05
6.57046e-05
1.24893e-05
6.15549e-05
4.28055e-06
5.06901e-05
2.66594e-05
8.70395e-05
7.31637e-05
7.65052e-05
7.42128e-05
6.58402e-05
7.52432e-05
5.5032e-05
7.63109e-05
4.40955e-05
7.72666e-05
3.312e-05
7.76607e-05
2.23497e-05
7.64748e-05
1.23399e-05
7.15647e-05
4.20513e-06
5.88249e-05
3.08646e-05
8.68815e-05
8.35766e-05
7.63248e-05
8.47695e-05
6.56431e-05
8.59249e-05
5.48131e-05
8.71408e-05
4.38532e-05
8.82266e-05
3.28612e-05
8.86527e-05
2.20971e-05
8.72389e-05
1.21346e-05
8.15272e-05
4.09597e-06
6.68635e-05
3.49605e-05
8.66409e-05
9.40864e-05
7.60405e-05
9.53699e-05
6.53246e-05
9.66408e-05
5.44562e-05
9.80092e-05
4.34641e-05
9.92187e-05
3.24572e-05
9.96596e-05
2.17136e-05
9.79825e-05
1.18258e-05
9.14149e-05
3.92687e-06
7.47625e-05
3.88874e-05
8.6061e-05
0.000104904
7.54309e-05
0.000106
6.46657e-05
0.000107406
5.37664e-05
0.000108908
4.27692e-05
0.000110216
3.17876e-05
0.000110641
2.11122e-05
0.000108658
1.13468e-05
0.00010118
3.64511e-06
8.24641e-05
4.25325e-05
3.31038e-05
0.000110568
-3.87678e-05
2.74689e-05
0.000111635
2.19201e-05
0.000112955
1.65055e-05
0.000114323
1.13758e-05
0.000115346
6.79773e-06
0.000115219
3.1442e-06
0.000112311
8.00063e-07
0.000103524
-8.26482e-08
8.33468e-05
4.24499e-05
2.68819e-05
0.000115654
-3.19675e-05
2.1779e-05
0.000116738
1.67701e-05
0.000117964
1.19679e-05
0.000119125
7.54232e-06
0.000119771
3.75998e-06
0.000119002
9.64908e-07
0.000115107
-5.19882e-07
0.000105009
-6.33814e-07
8.34608e-05
4.18161e-05
2.06739e-05
0.000120194
-2.52142e-05
1.61244e-05
0.000121287
1.16978e-05
0.00012239
7.53666e-06
0.000123286
3.83581e-06
0.000123472
8.64285e-07
0.000121973
-1.06227e-06
0.000117033
-1.68835e-06
0.000105635
-1.06462e-06
8.2837e-05
4.07514e-05
1.45429e-05
0.000124198
-1.85465e-05
1.05662e-05
0.000125264
6.74892e-06
0.000126208
3.2551e-06
0.00012678
2.98209e-07
0.000126429
-1.85338e-06
0.000124125
-2.91571e-06
0.000118095
-2.70823e-06
0.000105428
-1.40838e-06
8.15372e-05
3.93431e-05
8.53581e-06
0.000127664
-1.20022e-05
5.14152e-06
0.000128658
1.95412e-06
0.000129395
-8.49123e-07
0.000129583
-3.04456e-06
0.000128624
-4.37171e-06
0.000125452
-4.58547e-06
0.000118309
-3.58691e-06
0.000104429
-1.68079e-06
7.96311e-05
3.76623e-05
2.6837e-06
0.000130591
-5.61045e-06
-1.20281e-07
0.000131462
-2.66187e-06
0.000131937
-4.75592e-06
0.000131677
-6.17683e-06
0.000130045
-6.68064e-06
0.000125956
-6.06939e-06
0.000117698
-4.33084e-06
0.000102691
-1.89053e-06
7.71908e-05
3.57717e-05
-2.99267e-06
0.000132974
6.10252e-07
-5.19801e-06
0.000133668
-7.07997e-06
0.000133818
-8.44988e-06
0.000133047
-9.08788e-06
0.000130683
-8.77532e-06
0.000125643
-7.36944e-06
0.000116292
-4.94769e-06
0.000100269
-2.04583e-06
7.42889e-05
3.37259e-05
-8.4815e-06
0.000134805
6.65021e-06
-1.00779e-05
0.000135264
-1.12864e-05
0.000135027
-1.19191e-05
0.00013368
-1.17693e-05
0.000130533
-1.06525e-05
0.000124526
-8.4885e-06
0.000114128
-5.44519e-06
9.72257e-05
-2.15407e-06
7.09978e-05
3.15718e-05
-1.37765e-05
0.000136076
1.25054e-05
-1.47497e-05
0.000136237
-1.52675e-05
0.000135545
-1.51484e-05
0.000133561
-1.42069e-05
0.000129592
-1.23026e-05
0.000122622
-9.42524e-06
0.000111251
-5.83008e-06
9.36305e-05
-2.223e-06
6.73907e-05
2.93488e-05
-1.8868e-05
1.81805e-05
0.000136763
-1.9187e-05
0.000136556
-1.89831e-05
0.000135341
-1.80902e-05
0.000132668
-1.63556e-05
0.000127857
-1.36942e-05
0.000119961
-1.01697e-05
0.000107726
-6.1125e-06
8.95733e-05
-2.26993e-06
6.35481e-05
2.70789e-05
8.50453e-05
-3.93692e-05
-8.4444e-05
8.5872e-05
-3.27942e-05
8.68972e-05
-2.62394e-05
8.80638e-05
-1.97131e-05
8.93305e-05
-1.3269e-05
9.06497e-05
-6.92965e-06
9.19704e-05
-7.1048e-07
9.32421e-05
5.37857e-06
9.4417e-05
1.13304e-05
1.71574e-05
9.544e-05
8.58406e-05
-3.97911e-05
-8.54186e-05
8.64539e-05
-3.34075e-05
8.72658e-05
-2.70513e-05
8.82334e-05
-2.06807e-05
8.93189e-05
-1.43545e-05
9.04815e-05
-8.0923e-06
9.16779e-05
-1.90684e-06
9.28646e-05
4.19182e-06
9.40001e-05
1.01949e-05
1.61188e-05
9.50388e-05
8.65106e-05
-4.00049e-05
-8.62969e-05
8.6934e-05
-3.38309e-05
8.75511e-05
-2.76684e-05
8.83317e-05
-2.14613e-05
8.92433e-05
-1.5266e-05
9.02517e-05
-9.1007e-06
9.13209e-05
-2.97605e-06
9.24149e-05
3.09789e-06
9.34983e-05
9.11152e-06
1.50822e-05
9.45349e-05
8.7085e-05
-4.00651e-05
-8.70248e-05
8.73442e-05
-3.40901e-05
8.77876e-05
-2.81117e-05
8.8395e-05
-2.20687e-05
8.91411e-05
-1.60121e-05
8.99989e-05
-9.95843e-06
9.09396e-05
-3.91675e-06
9.19342e-05
2.10327e-06
9.29537e-05
8.09199e-06
1.40662e-05
9.39696e-05
8.75575e-05
-4.00031e-05
-8.76194e-05
8.7679e-05
-3.42117e-05
8.7972e-05
-2.84047e-05
8.8425e-05
-2.25218e-05
8.90198e-05
-1.66069e-05
8.97361e-05
-1.06747e-05
9.05522e-05
-4.73282e-06
9.14456e-05
1.20991e-06
9.23932e-05
7.14439e-06
1.30865e-05
9.33729e-05
8.7929e-05
-3.98345e-05
-8.80976e-05
8.79323e-05
-3.4215e-05
8.80964e-05
-2.85688e-05
8.84152e-05
-2.28406e-05
8.88762e-05
-1.70679e-05
8.94647e-05
-1.12633e-05
9.01649e-05
-5.43302e-06
9.09601e-05
4.14785e-07
9.18325e-05
6.27197e-06
1.21536e-05
9.27654e-05
8.82087e-05
-3.95708e-05
-8.84724e-05
8.81086e-05
-3.41149e-05
8.81615e-05
-2.86217e-05
8.83646e-05
-2.30437e-05
8.87091e-05
-1.74124e-05
8.91846e-05
-1.17387e-05
8.97798e-05
-6.02828e-06
9.04828e-05
-2.88227e-07
9.12806e-05
5.47421e-06
1.12734e-05
9.21608e-05
8.84075e-05
-3.92222e-05
-8.8756e-05
8.82163e-05
-3.39237e-05
8.81729e-05
-2.85783e-05
8.8276e-05
-2.31468e-05
8.85193e-05
-1.76558e-05
8.88957e-05
-1.21151e-05
8.93974e-05
-6.52991e-06
9.00159e-05
-9.06733e-07
9.0742e-05
4.74809e-06
1.04483e-05
9.15671e-05
8.85363e-05
-3.87978e-05
-8.89607e-05
8.82647e-05
-3.36521e-05
8.81373e-05
-2.84509e-05
8.81535e-05
-2.3163e-05
8.83091e-05
-1.78113e-05
8.85989e-05
-1.24049e-05
8.90176e-05
-6.94866e-06
8.95596e-05
-1.44877e-06
9.02186e-05
4.0891e-06
9.67808e-06
9.09889e-05
8.86058e-05
-3.83059e-05
-8.90978e-05
8.82629e-05
-3.33092e-05
8.80616e-05
-2.82496e-05
8.8002e-05
-2.31034e-05
8.8081e-05
-1.78904e-05
8.82951e-05
-1.2619e-05
8.86406e-05
-7.29422e-06
8.9114e-05
-1.92215e-06
8.9711e-05
3.49208e-06
8.96087e-06
9.04282e-05
8.86256e-05
-3.77536e-05
-8.91778e-05
8.82193e-05
-3.29029e-05
8.79529e-05
-2.79831e-05
8.78267e-05
-2.29771e-05
8.78386e-05
-1.79023e-05
8.79861e-05
-1.27665e-05
8.82669e-05
-7.57507e-06
8.86788e-05
-2.33403e-06
8.92191e-05
2.95176e-06
8.29392e-06
8.98861e-05
8.86043e-05
-3.71476e-05
-8.92103e-05
8.81416e-05
-3.24403e-05
8.78174e-05
-2.7659e-05
8.76323e-05
-2.27921e-05
8.7585e-05
-1.78549e-05
8.76737e-05
-1.28552e-05
8.78972e-05
-7.7985e-06
8.8254e-05
-2.69081e-06
8.87426e-05
2.46311e-06
7.67401e-06
8.93625e-05
8.85494e-05
-3.64935e-05
-8.92035e-05
8.80365e-05
-3.19273e-05
8.76609e-05
-2.72834e-05
8.74235e-05
-2.25547e-05
8.73236e-05
-1.7755e-05
8.73601e-05
-1.28918e-05
8.75324e-05
-7.97074e-06
8.78396e-05
-2.99809e-06
8.82813e-05
2.0215e-06
7.09783e-06
8.88574e-05
8.84677e-05
-3.57965e-05
-8.91647e-05
8.79097e-05
-3.13694e-05
8.74882e-05
-2.68618e-05
8.72042e-05
-2.22707e-05
8.70573e-05
-1.76082e-05
8.70472e-05
-1.28816e-05
8.71736e-05
-8.09707e-06
8.74362e-05
-3.26071e-06
8.78349e-05
1.62276e-06
6.56217e-06
8.83706e-05
8.83646e-05
-3.5061e-05
-8.91001e-05
8.77663e-05
-3.07711e-05
8.73037e-05
-2.63992e-05
8.69778e-05
-2.19448e-05
8.67889e-05
-1.74193e-05
8.67369e-05
-1.28296e-05
8.68218e-05
-8.18205e-06
8.7044e-05
-3.48286e-06
8.74035e-05
1.2632e-06
6.06403e-06
8.79017e-05
8.82449e-05
-3.42909e-05
-8.9015e-05
8.76105e-05
-3.01366e-05
8.71108e-05
-2.58995e-05
8.67473e-05
-2.15813e-05
8.65205e-05
-1.71924e-05
8.64306e-05
-1.27398e-05
8.64782e-05
-8.22956e-06
8.66635e-05
-3.66819e-06
8.69871e-05
9.39537e-07
5.60064e-06
8.74505e-05
8.81127e-05
-3.34897e-05
-8.89139e-05
8.74456e-05
-2.94696e-05
8.69126e-05
-2.53665e-05
8.65152e-05
-2.11839e-05
8.62541e-05
-1.69314e-05
8.613e-05
-1.26156e-05
8.61434e-05
-8.24301e-06
8.62951e-05
-3.81989e-06
8.65858e-05
6.48889e-07
5.16949e-06
8.70169e-05
8.79712e-05
-3.26604e-05
-8.88005e-05
8.72747e-05
-2.87732e-05
8.67116e-05
-2.48034e-05
8.62834e-05
-2.07558e-05
8.59913e-05
-1.66392e-05
8.5836e-05
-1.24603e-05
8.58183e-05
-8.22536e-06
8.59392e-05
-3.94075e-06
8.61994e-05
3.88676e-07
4.76827e-06
8.66006e-05
8.78232e-05
-3.18057e-05
-8.86778e-05
8.71002e-05
-2.80502e-05
8.65098e-05
-2.4213e-05
8.60538e-05
-2.02998e-05
8.57334e-05
-1.63188e-05
8.55496e-05
-1.22765e-05
8.55035e-05
-8.17926e-06
8.5596e-05
-4.03326e-06
8.58281e-05
1.56594e-07
4.39492e-06
8.62015e-05
8.7671e-05
-3.09282e-05
-8.85486e-05
8.6924e-05
-2.73032e-05
8.63089e-05
-2.35978e-05
8.58276e-05
-1.98184e-05
8.54815e-05
-1.59727e-05
8.52717e-05
-1.20668e-05
8.51995e-05
-8.10704e-06
8.52658e-05
-4.09964e-06
8.54719e-05
-4.94342e-08
4.04752e-06
8.58193e-05
8.75166e-05
-3.00299e-05
-8.8415e-05
8.67479e-05
-2.65344e-05
8.61103e-05
-2.29603e-05
8.5606e-05
-1.93141e-05
8.52363e-05
-1.5603e-05
8.50027e-05
-1.18332e-05
8.49065e-05
-8.0108e-06
8.49487e-05
-4.14189e-06
8.51306e-05
-2.31293e-07
3.72432e-06
8.54538e-05
8.73616e-05
-2.91128e-05
-8.82787e-05
8.65731e-05
-2.57459e-05
8.59151e-05
-2.23023e-05
8.53897e-05
-1.87887e-05
8.49986e-05
-1.52119e-05
8.47432e-05
-1.15778e-05
8.46248e-05
-7.89244e-06
8.46447e-05
-4.16183e-06
8.48042e-05
-3.90704e-07
3.42372e-06
8.51048e-05
8.72072e-05
-2.81786e-05
-8.81413e-05
8.64008e-05
-2.49395e-05
8.57243e-05
-2.16258e-05
8.51797e-05
-1.82441e-05
8.47689e-05
-1.4801e-05
8.44933e-05
-1.13023e-05
8.43546e-05
-7.75368e-06
8.43539e-05
-4.16111e-06
8.44924e-05
-5.29243e-07
3.14421e-06
8.47719e-05
8.70546e-05
-2.7229e-05
-8.80042e-05
8.62319e-05
-2.41169e-05
8.55384e-05
-2.09323e-05
8.49763e-05
-1.7682e-05
8.45475e-05
-1.43722e-05
8.42535e-05
-1.10083e-05
8.40959e-05
-7.59609e-06
8.4076e-05
-4.14126e-06
8.41952e-05
-6.48371e-07
2.88441e-06
8.4455e-05
8.69047e-05
-2.62654e-05
-8.78683e-05
8.60672e-05
-2.32794e-05
8.53583e-05
-2.02233e-05
8.47801e-05
-1.71038e-05
8.43347e-05
-1.39267e-05
8.40237e-05
-1.06973e-05
8.38487e-05
-7.42111e-06
8.38111e-05
-4.10366e-06
8.39122e-05
-7.49431e-07
2.64301e-06
8.41536e-05
8.67582e-05
-2.52891e-05
-8.77346e-05
8.59073e-05
-2.24284e-05
8.51842e-05
-1.95003e-05
8.45914e-05
-1.6511e-05
8.41308e-05
-1.34661e-05
8.38041e-05
-1.03707e-05
8.3613e-05
-7.23004e-06
8.3559e-05
-4.04959e-06
8.36432e-05
-8.33675e-07
2.41881e-06
8.38674e-05
8.66159e-05
-2.43011e-05
-8.76038e-05
8.57526e-05
-2.15652e-05
8.50167e-05
-1.87644e-05
8.44104e-05
-1.59047e-05
8.39358e-05
-1.29915e-05
8.35947e-05
-1.00296e-05
8.33887e-05
-7.02409e-06
8.33194e-05
-3.98025e-06
8.3388e-05
-9.02263e-07
2.21066e-06
8.35961e-05
8.64781e-05
-2.33027e-05
-8.74766e-05
8.56037e-05
-2.06907e-05
8.4856e-05
-1.80166e-05
8.42373e-05
-1.52861e-05
8.37499e-05
-1.2504e-05
8.33954e-05
-9.67513e-06
8.31757e-05
-6.80439e-06
8.30922e-05
-3.89674e-06
8.31462e-05
-9.56281e-07
2.01751e-06
8.33394e-05
8.63454e-05
-2.22946e-05
-8.73534e-05
8.54608e-05
-1.98061e-05
8.47023e-05
-1.72582e-05
8.40723e-05
-1.46561e-05
8.3573e-05
-1.20047e-05
8.32063e-05
-9.30842e-06
8.29739e-05
-6.57195e-06
8.28772e-05
-3.80007e-06
8.29177e-05
-9.96738e-07
1.83834e-06
8.30968e-05
8.62181e-05
-2.12779e-05
-8.72348e-05
8.53241e-05
-1.89122e-05
8.45558e-05
-1.64898e-05
8.39155e-05
-1.40158e-05
8.34053e-05
-1.14946e-05
8.30272e-05
-8.93036e-06
8.2783e-05
-6.32772e-06
8.26741e-05
-3.69119e-06
8.2702e-05
-1.02458e-06
1.67222e-06
8.28681e-05
8.60964e-05
-2.02532e-05
-8.71211e-05
8.5194e-05
-1.80098e-05
8.44166e-05
-1.57125e-05
8.37668e-05
-1.33659e-05
8.32466e-05
-1.09744e-05
8.28581e-05
-8.54183e-06
8.26029e-05
-6.07259e-06
8.24827e-05
-3.571e-06
8.24989e-05
-1.04069e-06
1.51825e-06
8.26528e-05
8.59806e-05
-1.92213e-05
-8.70125e-05
8.50705e-05
-1.70997e-05
8.42849e-05
-1.49269e-05
8.36263e-05
-1.27073e-05
8.30969e-05
-1.0445e-05
8.26987e-05
-8.14364e-06
8.24335e-05
-5.80738e-06
8.23028e-05
-3.44031e-06
8.23081e-05
-1.04591e-06
1.37561e-06
8.24507e-05
8.58709e-05
-1.8183e-05
-8.69093e-05
8.49538e-05
-1.61825e-05
8.41607e-05
-1.41338e-05
8.34941e-05
-1.20407e-05
8.29562e-05
-9.90714e-06
8.25491e-05
-7.73656e-06
8.22746e-05
-5.53285e-06
8.21342e-05
-3.29989e-06
8.21293e-05
-1.041e-06
1.2435e-06
8.22614e-05
8.57674e-05
-1.71387e-05
-8.68117e-05
8.48439e-05
-1.5259e-05
8.40439e-05
-1.33338e-05
8.337e-05
-1.13668e-05
8.28243e-05
-9.36151e-06
8.24091e-05
-7.32127e-06
8.21259e-05
-5.2497e-06
8.19765e-05
-3.15047e-06
8.19622e-05
-1.02671e-06
1.12117e-06
8.20845e-05
8.56703e-05
-1.60891e-05
-8.67199e-05
8.47409e-05
-1.43296e-05
8.39347e-05
-1.25275e-05
8.3254e-05
-1.06862e-05
8.27012e-05
-8.80874e-06
8.22784e-05
-6.89843e-06
8.19873e-05
-4.95862e-06
8.18296e-05
-2.99273e-06
8.18066e-05
-1.00372e-06
1.00792e-06
8.19199e-05
8.55795e-05
-1.50347e-05
-8.66339e-05
8.46449e-05
-1.3395e-05
8.38329e-05
-1.17155e-05
8.31461e-05
-9.99937e-06
8.25868e-05
-8.24942e-06
8.2157e-05
-6.46866e-06
8.18586e-05
-4.66021e-06
8.16932e-05
-2.82731e-06
8.16622e-05
-9.727e-07
9.03069e-07
8.1767e-05
8.54952e-05
-1.39759e-05
-8.65539e-05
8.45558e-05
-1.24556e-05
8.37386e-05
-1.08984e-05
8.30463e-05
-9.30699e-06
8.2481e-05
-7.68412e-06
8.20448e-05
-6.03251e-06
8.17397e-05
-4.35508e-06
8.15672e-05
-2.6548e-06
8.15287e-05
-9.34258e-07
8.05985e-07
8.16258e-05
8.54173e-05
-1.29133e-05
-8.64799e-05
8.44736e-05
-1.1512e-05
8.36518e-05
-1.00766e-05
8.29543e-05
-8.60952e-06
8.23835e-05
-7.11335e-06
8.19416e-05
-5.59054e-06
8.16303e-05
-4.04377e-06
8.14512e-05
-2.47579e-06
8.1406e-05
-8.88987e-07
7.16058e-07
8.14959e-05
8.53458e-05
-1.18472e-05
-8.64119e-05
8.43983e-05
-1.05645e-05
8.35722e-05
-9.25047e-06
8.28702e-05
-7.90745e-06
8.22944e-05
-6.53761e-06
8.18471e-05
-5.14326e-06
8.15302e-05
-3.72682e-06
8.13452e-05
-2.29082e-06
8.12937e-05
-8.37448e-07
6.32704e-07
8.1377e-05
8.52808e-05
-1.0778e-05
-8.635e-05
8.43298e-05
-9.61351e-06
8.35e-05
-8.4206e-06
8.27937e-05
-7.20122e-06
8.22135e-05
-5.95738e-06
8.17614e-05
-4.69114e-06
8.14393e-05
-3.40472e-06
8.12489e-05
-2.1004e-06
8.11916e-05
-7.80178e-07
5.55364e-07
8.12689e-05
8.52221e-05
-9.70613e-06
-8.6294e-05
8.42681e-05
-8.65954e-06
8.34349e-05
-7.58735e-06
8.27249e-05
-6.49127e-06
8.21407e-05
-5.3731e-06
8.16842e-05
-4.23466e-06
8.13574e-05
-3.07796e-06
8.1162e-05
-1.90503e-06
8.10996e-05
-7.17696e-07
4.83501e-07
8.11714e-05
8.51697e-05
-8.63196e-06
-8.62439e-05
8.42131e-05
-7.70293e-06
8.33769e-05
-6.75112e-06
8.26636e-05
-5.77802e-06
8.20757e-05
-4.78519e-06
8.16153e-05
-3.77427e-06
8.12844e-05
-2.74699e-06
8.10845e-05
-1.7052e-06
8.10173e-05
-6.50498e-07
4.16593e-07
8.10843e-05
8.51235e-05
-7.55585e-06
-8.61996e-05
8.41647e-05
-6.74406e-06
8.33259e-05
-5.91232e-06
8.26097e-05
-5.06188e-06
8.20186e-05
-4.1941e-06
8.15547e-05
-3.31038e-06
8.122e-05
-2.41227e-06
8.10162e-05
-1.50136e-06
8.09448e-05
-5.79069e-07
3.54133e-07
8.10072e-05
8.50835e-05
-6.47819e-06
-8.61611e-05
8.41227e-05
-5.78333e-06
8.32817e-05
-5.07133e-06
8.25631e-05
-4.34324e-06
8.19692e-05
-3.60021e-06
8.15023e-05
-2.84343e-06
8.11642e-05
-2.07423e-06
8.09568e-05
-1.29397e-06
8.08816e-05
-5.0388e-07
2.95624e-07
8.09402e-05
8.50494e-05
-5.39933e-06
-8.61283e-05
8.40872e-05
-4.82109e-06
8.32444e-05
-4.22853e-06
8.25236e-05
-3.62249e-06
8.19274e-05
-3.00392e-06
8.14578e-05
-2.37382e-06
8.11168e-05
-1.7333e-06
8.09063e-05
-1.08348e-06
8.08278e-05
-4.25398e-07
2.40579e-07
8.08829e-05
8.50213e-05
-4.31966e-06
-8.6101e-05
8.4058e-05
-3.85774e-06
8.32137e-05
-3.3843e-06
8.24913e-05
-2.90001e-06
8.1893e-05
-2.40562e-06
8.14211e-05
-1.90196e-06
8.10777e-05
-1.38988e-06
8.08645e-05
-8.70316e-07
8.07832e-05
-3.44084e-07
1.88508e-07
8.08353e-05
8.49991e-05
-3.23956e-06
-8.60792e-05
8.4035e-05
-2.89362e-06
8.31897e-05
-2.53899e-06
8.24658e-05
-2.17615e-06
8.18659e-05
-1.8057e-06
8.13922e-05
-1.42823e-06
8.10467e-05
-1.04441e-06
8.08313e-05
-6.54927e-07
8.07476e-05
-2.60404e-07
1.38921e-07
8.07972e-05
8.49827e-05
-2.15937e-06
-8.60629e-05
8.40182e-05
-1.92908e-06
8.31721e-05
-1.69295e-06
8.24473e-05
-1.45129e-06
8.18461e-05
-1.20452e-06
8.13709e-05
-9.53047e-07
8.10238e-05
-6.97304e-07
8.08066e-05
-4.3776e-07
8.07211e-05
-1.7483e-07
9.13186e-08
8.07687e-05
8.49721e-05
-1.07942e-06
-8.6052e-05
8.40074e-05
-9.64448e-07
8.3161e-05
-8.46505e-07
8.24355e-05
-7.25783e-07
8.18334e-05
-6.02485e-07
8.13572e-05
-4.7682e-07
8.10089e-05
-3.49009e-07
8.07904e-05
-2.19285e-07
8.07035e-05
-8.78547e-08
4.51894e-08
8.07496e-05
8.4967e-05
-8.60465e-05
8.40026e-05
8.31561e-05
8.24303e-05
8.18278e-05
8.1351e-05
8.1002e-05
8.07827e-05
8.06949e-05
8.074e-05
8.50473e-05
4.30076e-06
8.37651e-05
1.20279e-06
8.31511e-05
1.93084e-06
8.33784e-05
3.94475e-06
8.34426e-05
4.82722e-06
8.33346e-05
5.44959e-06
8.32139e-05
6.26446e-06
8.30998e-05
7.16338e-06
8.29782e-05
8.08978e-06
8.2852e-05
9.06886e-06
8.2731e-05
1.01219e-05
8.2625e-05
1.12583e-05
8.25444e-05
1.24866e-05
8.25019e-05
1.38164e-05
8.2513e-05
1.52569e-05
8.25967e-05
1.68149e-05
8.27762e-05
1.84922e-05
8.30841e-05
2.02779e-05
8.35875e-05
2.21226e-05
2.38615e-05
8.465e-05
2.41291e-06
8.39599e-05
1.89284e-06
8.34403e-05
2.45046e-06
8.35249e-05
3.86013e-06
8.35631e-05
4.78902e-06
8.34886e-05
5.52414e-06
8.34034e-05
6.34958e-06
8.33266e-05
7.24024e-06
8.32501e-05
8.16629e-06
8.31768e-05
9.14211e-06
8.31156e-05
1.01832e-05
8.30757e-05
1.12981e-05
8.30679e-05
1.24944e-05
8.3105e-05
1.37794e-05
8.32025e-05
1.51594e-05
8.33796e-05
1.66378e-05
8.36598e-05
1.8212e-05
8.40727e-05
1.9865e-05
8.46545e-05
2.15408e-05
2.30974e-05
8.36995e-05
1.5192e-06
8.36453e-05
1.94703e-06
8.34385e-05
2.65724e-06
8.34957e-05
3.80291e-06
8.3553e-05
4.73179e-06
8.35403e-05
5.5368e-06
8.35101e-05
6.37983e-06
8.34821e-05
7.26816e-06
8.3457e-05
8.19142e-06
8.34393e-05
9.1598e-06
8.34376e-05
1.01849e-05
8.34612e-05
1.12745e-05
8.35209e-05
1.24347e-05
8.36292e-05
1.3671e-05
8.38013e-05
1.49874e-05
8.40546e-05
1.63845e-05
8.44098e-05
1.78568e-05
8.48893e-05
1.93854e-05
8.55136e-05
2.09165e-05
2.23141e-05
8.32624e-05
1.08722e-06
8.33278e-05
1.88164e-06
8.32979e-05
2.68709e-06
8.33886e-05
3.7122e-06
8.34795e-05
4.64088e-06
8.35251e-05
5.49127e-06
8.35523e-05
6.35259e-06
8.35777e-05
7.2428e-06
8.36062e-05
8.16294e-06
8.36441e-05
9.12183e-06
8.37002e-05
1.01289e-05
8.37838e-05
1.11908e-05
8.39056e-05
1.23129e-05
8.40776e-05
1.3499e-05
8.43138e-05
1.47512e-05
8.463e-05
1.60683e-05
8.50435e-05
1.74433e-05
8.55721e-05
1.88568e-05
8.62303e-05
2.02582e-05
2.15197e-05
8.3043e-05
8.92651e-07
8.31219e-05
1.80276e-06
8.3169e-05
2.63998e-06
8.32777e-05
3.60352e-06
8.33912e-05
4.52737e-06
8.34804e-05
5.40206e-06
8.35567e-05
6.27634e-06
8.36311e-05
7.16839e-06
8.37099e-05
8.08416e-06
8.37999e-05
9.03177e-06
8.39097e-05
1.00192e-05
8.40483e-05
1.10522e-05
8.42259e-05
1.21352e-05
8.44539e-05
1.3271e-05
8.4745e-05
1.44602e-05
8.51129e-05
1.57004e-05
8.55725e-05
1.69838e-05
8.61379e-05
1.82914e-05
8.68196e-05
1.95765e-05
2.07198e-05
8.29464e-05
8.09966e-07
8.30117e-05
1.73746e-06
8.3082e-05
2.56963e-06
8.31932e-05
3.49231e-06
8.33168e-05
4.4038e-06
8.34334e-05
5.28545e-06
8.35458e-05
6.16401e-06
8.36601e-05
7.05402e-06
8.37819e-05
7.96236e-06
8.39175e-05
8.89618e-06
8.40745e-05
9.86214e-06
8.42615e-05
1.08652e-05
8.44878e-05
1.19089e-05
8.47639e-05
1.2995e-05
8.51009e-05
1.41232e-05
8.55109e-05
1.52903e-05
8.60064e-05
1.64883e-05
8.65988e-05
1.7699e-05
8.72959e-05
1.88794e-05
1.99181e-05
8.29137e-05
7.74164e-07
8.29637e-05
1.6874e-06
8.30355e-05
2.49788e-06
8.31417e-05
3.38607e-06
8.32669e-05
4.27858e-06
8.33982e-05
5.15415e-06
8.35345e-05
6.02775e-06
8.36786e-05
6.90987e-06
8.38346e-05
7.80642e-06
8.40075e-05
8.7232e-06
8.42041e-05
9.66556e-06
8.44318e-05
1.06375e-05
8.4699e-05
1.16417e-05
8.5015e-05
1.2679e-05
8.53895e-05
1.37486e-05
8.5833e-05
1.48468e-05
8.63557e-05
1.59655e-05
8.69671e-05
1.70877e-05
8.7673e-05
1.81735e-05
1.91187e-05
8.29104e-05
7.55444e-07
8.29512e-05
1.64652e-06
8.30189e-05
2.43022e-06
8.31184e-05
3.28656e-06
8.32413e-05
4.15568e-06
8.33793e-05
5.01612e-06
8.35303e-05
5.87681e-06
8.36952e-05
6.74498e-06
8.38766e-05
7.62497e-06
8.40787e-05
8.52112e-06
8.43068e-05
9.43745e-06
8.45674e-05
1.0377e-05
8.48676e-05
1.13415e-05
8.52155e-05
1.23312e-05
8.56195e-05
1.33446e-05
8.60884e-05
1.43779e-05
8.66309e-05
1.5423e-05
8.72544e-05
1.64642e-05
8.79635e-05
1.74644e-05
1.83262e-05
8.29195e-05
7.41235e-07
8.29569e-05
1.60909e-06
8.30211e-05
2.36603e-06
8.31152e-05
3.1925e-06
8.3235e-05
4.03588e-06
8.33756e-05
4.87546e-06
8.35352e-05
5.71725e-06
8.37139e-05
6.56626e-06
8.39136e-05
7.42532e-06
8.41373e-05
8.2974e-06
8.43894e-05
9.18533e-06
8.46753e-05
1.00911e-05
8.5001e-05
1.10157e-05
8.53733e-05
1.19588e-05
8.57994e-05
1.29185e-05
8.62866e-05
1.38907e-05
8.6842e-05
1.48676e-05
8.74717e-05
1.58346e-05
8.81789e-05
1.67572e-05
1.75444e-05
8.29332e-05
7.26745e-07
8.29707e-05
1.5716e-06
8.30334e-05
2.30333e-06
8.31243e-05
3.10165e-06
8.32418e-05
3.91836e-06
8.33835e-05
4.73378e-06
8.35481e-05
5.55264e-06
8.37358e-05
6.37853e-06
8.3948e-05
7.21312e-06
8.41871e-05
8.05826e-06
8.44567e-05
8.91573e-06
8.47612e-05
9.78668e-06
8.51056e-05
1.06713e-05
8.54955e-05
1.15689e-05
8.5937e-05
1.2477e-05
8.64361e-05
1.33916e-05
8.69986e-05
1.43052e-05
8.76292e-05
1.5204e-05
8.83301e-05
1.60562e-05
1.67767e-05
8.29482e-05
7.1053e-07
8.29874e-05
1.53242e-06
8.30502e-05
2.24045e-06
8.31399e-05
3.012e-06
8.32564e-05
3.80187e-06
8.33987e-05
4.59143e-06
8.35665e-05
5.38487e-06
8.37601e-05
6.18495e-06
8.39807e-05
6.99252e-06
8.42304e-05
7.80856e-06
8.45121e-05
8.63403e-06
8.48294e-05
9.46935e-06
8.51866e-05
1.03142e-05
8.55883e-05
1.11672e-05
8.60393e-05
1.20259e-05
8.65448e-05
1.28861e-05
8.71091e-05
1.37408e-05
8.77361e-05
1.4577e-05
8.84271e-05
1.53652e-05
1.6026e-05
8.2963e-05
6.92469e-07
8.30044e-05
1.49106e-06
8.30684e-05
2.17639e-06
8.31583e-05
2.92214e-06
8.32748e-05
3.68533e-06
8.3418e-05
4.44828e-06
8.35879e-05
5.21493e-06
8.37853e-05
5.98756e-06
8.40113e-05
6.76646e-06
8.42679e-05
7.55199e-06
8.45575e-05
8.34448e-06
8.4883e-05
9.14379e-06
8.52481e-05
9.94912e-06
8.56565e-05
1.07588e-05
8.61122e-05
1.15702e-05
8.66192e-05
1.23791e-05
8.71811e-05
1.31789e-05
8.78008e-05
1.39573e-05
8.84788e-05
1.46872e-05
1.52945e-05
8.29772e-05
6.72872e-07
8.30206e-05
1.4476e-06
8.30863e-05
2.11075e-06
8.31771e-05
2.83132e-06
8.32943e-05
3.56808e-06
8.34384e-05
4.30418e-06
8.361e-05
5.0434e-06
8.38098e-05
5.78771e-06
8.40393e-05
6.53703e-06
8.43e-05
7.29128e-06
8.45941e-05
8.05036e-06
8.49242e-05
8.81369e-06
8.52932e-05
9.58013e-06
8.57042e-05
1.03478e-05
8.61605e-05
1.11139e-05
8.66652e-05
1.18744e-05
8.72212e-05
1.26229e-05
8.78304e-05
1.33481e-05
8.84929e-05
1.40247e-05
1.45839e-05
8.29906e-05
6.52127e-07
8.30358e-05
1.4024e-06
8.3103e-05
2.04354e-06
8.31951e-05
2.73926e-06
8.33133e-05
3.44983e-06
8.34584e-05
4.15911e-06
8.36311e-05
4.8707e-06
8.38324e-05
5.58635e-06
8.40637e-05
6.30574e-06
8.43265e-05
7.0285e-06
8.46227e-05
7.75417e-06
8.49545e-05
8.48191e-06
8.53243e-05
9.21034e-06
8.57347e-05
9.93742e-06
8.61883e-05
1.06603e-05
8.66876e-05
1.13751e-05
8.72347e-05
1.20757e-05
8.78311e-05
1.27518e-05
8.84762e-05
1.33797e-05
1.38954e-05
8.30033e-05
6.30583e-07
8.30498e-05
1.35587e-06
8.31184e-05
1.97499e-06
8.32116e-05
2.64603e-06
8.33308e-05
3.33062e-06
8.34767e-05
4.01322e-06
8.36502e-05
4.69725e-06
8.38522e-05
5.38428e-06
8.40842e-05
6.07378e-06
8.43475e-05
6.7652e-06
8.46438e-05
7.45785e-06
8.4975e-05
8.15068e-06
8.53432e-05
8.84217e-06
8.57505e-05
9.53019e-06
8.61988e-05
1.02119e-05
8.66903e-05
1.08836e-05
8.72265e-05
1.15396e-05
8.78082e-05
1.217e-05
8.84346e-05
1.27533e-05
1.32299e-05
8.30153e-05
6.08518e-07
8.30628e-05
1.3084e-06
8.31323e-05