/*--------------------------------*- C++ -*----------------------------------*\
  =========                 |
  \\      /  F ield         | OpenFOAM: The Open Source CFD Toolbox
   \\    /   O peration     | Website:  https://openfoam.org
    \\  /    A nd           | Version:  6
     \\/     M anipulation  |
\*---------------------------------------------------------------------------*/
FoamFile
{
    version     2.0;
    format      ascii;
    class       volVectorField;
    location    "1.25";
    object      U;
}
// * * * * * * * * * * * * * * * * * * * * * * * * * * * * * * * * * * * * * //

dimensions      [0 1 -1 0 0 0 0];

internalField   nonuniform List<vector> 
5600
(
(2.10694 0.00656188 3.73488e-19)
(1.26158 0.00738891 -6.42428e-18)
(0.967919 0.00651262 6.41e-18)
(1.01536 0.00486942 0)
(1.05297 0.0041702 0)
(1.04804 0.00442646 0)
(1.03697 0.00488557 -1.19615e-17)
(1.02959 0.0053089 1.19344e-17)
(1.02306 0.00578288 0)
(1.01562 0.00636505 0)
(1.00723 0.00705521 0)
(0.997973 0.00785223 0)
(0.987735 0.00876748 0)
(0.976351 0.00981736 -2.35493e-17)
(0.963652 0.0110195 2.34966e-17)
(0.949454 0.0123915 -4.68893e-17)
(0.933556 0.0139468 4.67847e-17)
(0.915745 0.0156828 0)
(0.895813 0.0175574 -3.63895e-19)
(0.873593 0.0194328 0)
(2.1216 0.0116999 -3.68282e-19)
(1.25498 0.0153654 6.33546e-18)
(0.967449 0.0152881 -6.32373e-18)
(1.01923 0.0135673 0)
(1.05567 0.01283 0)
(1.04964 0.0133994 2.442e-17)
(1.03844 0.0144197 3.48623e-22)
(1.03114 0.0155707 -7.36998e-19)
(1.02462 0.0169405 1.47175e-22)
(1.0172 0.0186031 -2.35008e-17)
(1.00888 0.0205688 0)
(0.999715 0.022849 -4.75562e-17)
(0.98961 0.0254749 4.6736e-17)
(0.978397 0.0284892 0)
(0.965914 0.0319396 0)
(0.951988 0.0358745 0)
(0.936429 0.0403292 0)
(0.919033 0.0452923 -4.63006e-17)
(0.899597 0.0506406 4.65747e-17)
(0.877867 0.0560183 4.5437e-17)
(2.13909 0.0125389 0)
(1.252 0.0232308 0)
(0.965229 0.025258 0)
(1.02101 0.0224357 0)
(1.05796 0.0212788 2.34011e-17)
(1.05166 0.0222605 -2.40966e-17)
(1.04063 0.0238858 -1.45826e-18)
(1.03362 0.0257277 -7.28057e-19)
(1.02734 0.0279574 2.32637e-17)
(1.02014 0.0306801 -2.17775e-17)
(1.01206 0.033906 -1.4497e-18)
(1.00319 0.0376537 4.70466e-17)
(0.993429 0.0419718 -4.77e-17)
(0.982625 0.0469262 1.44334e-18)
(0.970638 0.0525916 4.61198e-17)
(0.957316 0.0590436 -9.35436e-17)
(0.942487 0.0663368 -1.43765e-18)
(0.925966 0.074451 4.59179e-17)
(0.907554 0.0831837 -1.43285e-18)
(0.88692 0.0919727 -7.15748e-19)
(2.16053 0.0150765 0)
(1.25058 0.0297852 -1.44243e-18)
(0.962256 0.0331503 0)
(1.02188 0.0299338 0)
(1.05999 0.0287949 0)
(1.05389 0.0303514 0)
(1.04329 0.03269 1.43681e-18)
(1.03682 0.0353098 2.4402e-17)
(1.03101 0.0384564 -2.2944e-17)
(1.02426 0.0422689 -1.43261e-18)
(1.01665 0.046762 2.86241e-18)
(1.00829 0.051963 0)
(0.999113 0.0579381 -4.42809e-17)
(0.988988 0.0647747 4.42373e-17)
(0.977807 0.0725721 4.56202e-17)
(0.965451 0.0814307 -4.55752e-17)
(0.951781 0.0914234 9.24854e-17)
(0.936639 0.102524 -9.09726e-17)
(0.919851 0.11446 1.42008e-18)
(0.901034 0.126487 1.41926e-18)
(2.18556 0.0178663 -5.59609e-18)
(1.24916 0.0353301 7.06823e-18)
(0.958799 0.0394929 -1.13254e-17)
(1.02268 0.0360667 -1.13187e-17)
(1.06218 0.0351537 2.263e-17)
(1.05642 0.0373936 2.2619e-17)
(1.04643 0.0405339 -2.26095e-17)
(1.04068 0.0440162 1.41252e-18)
(1.03554 0.0481427 1.41193e-18)
(1.02942 0.0530774 4.51632e-17)
(1.02247 0.0588379 -9.02883e-17)
(1.01483 0.06546 1.40983e-18)
(1.00647 0.073025 4.65156e-17)
(0.997279 0.0816398 1.40897e-18)
(0.987203 0.0914242 -4.36599e-17)
(0.976165 0.102499 4.78643e-17)
(0.964071 0.114954 1.40717e-18)
(0.9508 0.128756 0)
(0.936223 0.143568 1.40597e-18)
(0.91994 0.158481 1.40574e-18)
(2.21374 0.020488 5.47609e-18)
(1.24726 0.0399904 -5.53363e-18)
(0.954929 0.0444866 1.38657e-18)
(1.02374 0.0407938 0)
(1.06478 0.040219 2.21901e-17)
(1.05941 0.0432507 -2.21947e-17)
(1.05014 0.0472816 1.38746e-18)
(1.04523 0.0517036 -4.71838e-17)
(1.04087 0.0568655 -2.77624e-18)
(1.03551 0.0629443 8.88525e-17)
(1.02936 0.069956 -4.72123e-17)
(1.0226 0.0779422 -1.38888e-18)
(1.01523 0.0869972 -4.72313e-17)
(1.0072 0.097243 -4.58515e-17)
(0.998492 0.108816 8.75505e-17)
(0.989082 0.121851 8.61781e-17)
(0.978933 0.136449 -9.03646e-17)
(0.967969 0.152573 8.76015e-17)
(0.956116 0.169825 -1.79407e-16)
(0.942986 0.187148 8.76467e-17)
(2.24457 0.0231079 0)
(1.24424 0.0436304 0)
(0.950501 0.0478006 -1.35564e-18)
(1.02526 0.0438821 2.17068e-17)
(1.06801 0.0438809 -2.1726e-17)
(1.063 0.0478692 -1.35896e-18)
(1.05447 0.0528979 -1.36019e-18)
(1.05046 0.0583383 1.3614e-18)
(1.04692 0.0645793 1.3626e-18)
(1.04237 0.0718016 0)
(1.03709 0.080017 4.50448e-17)
(1.03132 0.0892727 2.15915e-22)
(1.02509 0.0996742 -4.23889e-17)
(1.01838 0.111355 -8.62212e-17)
(1.01125 0.124462 1.75332e-16)
(1.00372 0.139141 -8.63715e-17)
(0.995815 0.155496 8.78195e-17)
(0.987509 0.173488 -8.6522e-17)
(0.978788 0.19267 -8.79721e-17)
(0.969292 0.211865 8.66752e-17)
(2.27733 0.0270728 0)
(1.23849 0.0457256 1.31966e-18)
(0.945132 0.0484594 -2.11721e-17)
(1.02756 0.0450494 2.25315e-17)
(1.07208 0.0461714 -2.12363e-17)
(1.0672 0.0513062 2.39293e-17)
(1.05936 0.0574479 0)
(1.05623 0.063988 1.33371e-18)
(1.05349 0.0713275 0)
(1.04974 0.0796506 -1.33801e-18)
(1.04536 0.0889726 4.28857e-17)
(1.04064 0.0993503 -4.29548e-17)
(1.03563 0.1109 -8.60486e-17)
(1.03038 0.123762 8.48405e-17)
(1.02498 0.138091 0)
(1.01952 0.154032 0)
(1.01408 0.171695 8.66055e-17)
(1.00869 0.191039 1.97245e-22)
(1.0034 0.211597 -8.68848e-17)
(0.997873 0.232136 8.83778e-17)
(2.31139 0.03823 -4.44407e-18)
(1.22583 0.0431618 4.49344e-18)
(0.939049 0.043033 0)
(1.03191 0.0439265 -1.93923e-18)
(1.07723 0.0475195 -2.07311e-17)
(1.07182 0.0538378 -2.20794e-17)
(1.06458 0.0611689 8.33209e-17)
(1.06227 0.0689167 -4.30651e-17)
(1.06022 0.0773599 -4.186e-17)
(1.05722 0.0867045 4.32715e-17)
(1.05375 0.0970054 -8.41219e-17)
(1.05011 0.108337 1.68648e-16)
(1.0464 0.120822 1.88854e-22)
(1.04269 0.134604 -8.47303e-17)
(1.03912 0.149832 0)
(1.03585 0.166647 8.51398e-17)
(1.03301 0.185153 -1.70691e-16)
(1.0307 0.205326 8.55518e-17)
(1.02905 0.226709 0)
(1.02781 0.248037 0)
(2.3483 0.062723 -5.55012e-18)
(1.19666 0.0270188 4.36731e-18)
(0.937429 0.0266155 0)
(1.04303 0.0412294 2.07657e-17)
(1.08366 0.049258 -2.02005e-17)
(1.07614 0.0561454 -4.05271e-17)
(1.06975 0.0644901 -3.34556e-22)
(1.06822 0.0735107 8.15744e-17)
(1.06671 0.0830164 -8.18362e-17)
(1.06442 0.09326 4.10497e-17)
(1.06188 0.104403 -8.2364e-17)
(1.05938 0.11655 8.26299e-17)
(1.05701 0.12982 -8.28974e-17)
(1.05489 0.144347 8.31662e-17)
(1.05319 0.160264 8.34364e-17)
(1.05212 0.177688 -8.3708e-17)
(1.05189 0.196702 0)
(1.05269 0.21731 -8.4255e-17)
(1.05478 0.239224 8.45311e-17)
(1.05794 0.261225 8.47835e-17)
(0.845699 0.0210712 0)
(0.807803 0.023327 0)
(0.762271 0.0259173 4.23641e-17)
(0.706996 0.0288994 -2.29951e-17)
(0.639151 0.0322857 -2.51455e-17)
(0.555114 0.0359246 4.15993e-17)
(0.450995 0.0392486 -1.545e-17)
(0.322993 0.0408743 3.48654e-17)
(0.1696 0.0379938 0)
(0.0475605 0.0216121 0)
(0.850643 0.061037 -1.83818e-17)
(0.813459 0.0679047 -5.92483e-17)
(0.76864 0.0758251 -2.1309e-17)
(0.714239 0.0849674 2.31324e-17)
(0.647426 0.0953742 2.52916e-17)
(0.564536 0.106579 -5.57763e-17)
(0.46155 0.116874 4.65951e-17)
(0.334408 0.122014 -8.75775e-17)
(0.180527 0.113119 -1.00294e-17)
(0.0540384 0.0645638 6.41195e-17)
(0.861091 0.100204 1.84577e-17)
(0.825232 0.111505 -1.98313e-17)
(0.781798 0.124574 4.27967e-17)
(0.729095 0.13966 4.64644e-17)
(0.664286 0.156831 -5.08106e-17)
(0.583619 0.175303 -2.8017e-17)
(0.482811 0.192247 3.12156e-17)
(0.357135 0.200598 -5.2813e-17)
(0.202253 0.185349 8.0668e-17)
(0.067005 0.105965 -1.5245e-16)
(0.87736 0.137717 3.69418e-17)
(0.84334 0.153271 0)
(0.801855 0.17126 0)
(0.751568 0.191979 -4.64994e-17)
(0.689609 0.215521 5.08487e-17)
(0.612093 0.240778 2.11947e-21)
(0.514343 0.263817 0)
(0.390619 0.274856 7.04807e-17)
(0.234171 0.253171 -6.05524e-17)
(0.0860479 0.144567 1.87803e-16)
(0.899115 0.172303 -3.68465e-17)
(0.867382 0.191783 0)
(0.828335 0.214345 8.5417e-17)
(0.781087 0.240271 0)
(0.722707 0.269679 5.06925e-17)
(0.649127 0.301136 5.59009e-17)
(0.555166 0.329627 0)
(0.433785 0.342792 1.40459e-16)
(0.275185 0.314719 -2.01091e-17)
(0.11045 0.179209 -7.01409e-17)
(0.925578 0.203038 2.00721e-21)
(0.89651 0.226005 -1.57374e-16)
(0.860319 0.252682 -2.67807e-21)
(0.816638 0.283282 0)
(0.762438 0.317943 -5.03601e-17)
(0.693428 0.354901 -5.55131e-17)
(0.603826 0.388092 0)
(0.485062 0.402737 -1.39381e-16)
(0.323756 0.36834 -1.59515e-16)
(0.139233 0.208895 2.31679e-17)
(0.955705 0.22928 7.44334e-22)
(0.929584 0.255247 1.10288e-21)
(0.896583 0.285523 1.68151e-16)
(0.856888 0.320209 -1.27849e-21)
(0.80732 0.359443 -9.96863e-17)
(0.743334 0.401117 -1.09844e-16)
(0.658472 0.43814 -3.05646e-17)
(0.542461 0.453495 3.4432e-17)
(0.377957 0.412787 1.18132e-16)
(0.171172 0.232831 2.28502e-16)
(0.988326 0.250681 -1.77782e-21)
(0.965257 0.2792 7.69837e-17)
(0.935666 0.312557 -1.66002e-16)
(0.900244 0.350737 -4.50189e-17)
(0.85558 0.393846 2.45832e-16)
(0.796877 0.439403 1.08298e-16)
(0.716961 0.479303 -1.20442e-16)
(0.603744 0.494499 0)
(0.435672 0.447433 3.87199e-17)
(0.20489 0.25057 -4.03932e-16)
(1.02225 0.267332 -1.22868e-21)
(1.00181 0.297953 -7.57908e-17)
(0.975676 0.333944 4.02334e-21)
(0.944671 0.375102 -8.85673e-17)
(0.905061 0.421457 9.66747e-17)
(0.851875 0.470119 5.32038e-17)
(0.777187 0.51199 5.91322e-17)
(0.666951 0.526194 -3.32444e-17)
(0.49505 0.472679 3.79278e-17)
(0.23903 0.262206 1.75611e-16)
(1.05544 0.280859 -6.93374e-17)
(1.03652 0.313098 -7.43937e-17)
(1.01402 0.351347 8.01466e-17)
(0.987588 0.395001 8.68459e-17)
(0.953315 0.44387 -1.89512e-16)
(0.906113 0.494557 0)
(0.837103 0.536991 0)
(0.729882 0.54883 -3.24964e-17)
(0.553391 0.488474 3.70246e-17)
(0.271503 0.267495 0)
(1.08552 0.301734 6.78116e-17)
(1.0672 0.335038 7.28361e-17)
(1.04829 0.373651 0)
(1.02578 0.417533 -8.51919e-17)
(0.996035 0.465667 0)
(0.953588 0.513842 -1.025e-16)
(0.888412 0.551381 -5.70118e-17)
(0.781982 0.556045 -6.41803e-17)
(0.599951 0.487823 -1.46681e-16)
(0.296486 0.262855 1.70166e-16)
(1.11747 0.320387 1.62778e-21)
(1.10283 0.354329 -1.4813e-16)
(1.08752 0.392498 2.24758e-21)
(1.06857 0.435357 8.66721e-17)
(1.04236 0.480953 0)
(1.00268 0.524191 1.04352e-16)
(0.938222 0.553916 0)
(0.82875 0.548524 1.30817e-16)
(0.63828 0.470986 1.56578e-20)
(0.314878 0.247987 -1.73654e-16)
(1.15068 0.334943 6.99301e-17)
(1.14022 0.368458 -7.51288e-17)
(1.12843 0.405466 2.43124e-16)
(1.11261 0.446261 -8.79522e-17)
(1.089 0.488115 -9.61268e-17)
(1.05062 0.5252 -5.29759e-17)
(0.98502 0.546086 2.47772e-21)
(0.870644 0.530109 6.64738e-17)
(0.67067 0.443743 2.66198e-16)
(0.328639 0.227101 4.41798e-17)
(1.18491 0.344527 -1.41525e-16)
(1.17832 0.37689 0)
(1.16968 0.411975 -4.61368e-21)
(1.15638 0.449689 8.90359e-17)
(1.13432 0.486692 2.43352e-16)
(1.0958 0.516655 5.36549e-17)
(1.0274 0.528168 1.1952e-16)
(0.90662 0.501902 -1.01071e-16)
(0.696403 0.408305 -1.92871e-16)
(0.337647 0.202168 1.79354e-16)
(1.21945 0.348818 7.14331e-17)
(1.21617 0.379352 7.67504e-17)
(1.21006 0.411767 -1.65637e-16)
(1.19838 0.445468 -4.49591e-17)
(1.17658 0.476645 -1.96632e-16)
(1.13627 0.49869 -1.62627e-16)
(1.06325 0.500546 -2.41569e-16)
(0.934546 0.46467 1.36246e-16)
(0.713648 0.366003 0)
(0.341251 0.174443 -2.04213e-16)
(1.25329 0.347615 1.07883e-16)
(1.25261 0.375698 0)
(1.24817 0.404761 0)
(1.23699 0.433666 0)
(1.21397 0.458274 0)
(1.17009 0.471922 1.09232e-16)
(1.09066 0.464227 1.21719e-16)
(0.952721 0.419844 0)
(0.72125 0.318593 0)
(0.33924 0.145218 -9.15518e-17)
(1.28538 0.34094 -3.61141e-17)
(1.28641 0.36603 -8.9178e-22)
(1.28257 0.391159 -4.18795e-17)
(1.27056 0.414665 4.54743e-17)
(1.24473 0.432232 -4.97367e-17)
(1.19553 0.437367 1.37165e-16)
(1.10807 0.420661 -3.05744e-17)
(0.960034 0.369283 6.90026e-17)
(0.718765 0.268093 -1.97714e-17)
(0.331805 0.115771 9.20615e-17)
(1.31464 0.329052 7.23421e-17)
(1.31635 0.350711 -3.8866e-17)
(1.31189 0.37145 0)
(1.29759 0.389152 -4.55505e-17)
(1.26729 0.399489 0)
(1.21113 0.396352 -5.49615e-17)
(1.11438 0.371567 -3.06265e-17)
(0.955949 0.315024 3.45632e-17)
(0.706341 0.216536 0)
(0.319431 0.0872551 -1.15307e-17)
(1.34005 0.312411 -5.41964e-17)
(1.3413 0.33033 3.88221e-17)
(1.33491 0.346366 0)
(1.31687 0.358057 0)
(1.28061 0.361233 4.97601e-17)
(1.21616 0.350378 -2.74473e-17)
(1.10936 0.318765 -3.05888e-17)
(0.940843 0.259113 -6.90449e-17)
(0.684861 0.165866 3.95678e-17)
(0.302891 0.0606851 -5.18145e-17)
(1.36092 0.291653 5.39943e-17)
(1.36067 0.305541 -5.85727e-22)
(1.35115 0.316573 -2.08678e-17)
(1.32799 0.322102 0)
(1.28436 0.318327 -2.47808e-17)
(1.21048 0.300549 -1.36661e-17)
(1.09311 0.263699 3.80754e-17)
(0.915158 0.203305 8.59263e-18)
(0.65502 0.117853 -4.43101e-17)
(0.282708 0.0369302 5.15663e-17)
(1.10018 0.277588 -4.17437e-16)
(1.12964 0.294386 1.03257e-16)
(1.15963 0.307936 0)
(1.19052 0.317271 1.02136e-16)
(1.22196 0.322118 -3.42828e-23)
(1.25302 0.322289 -1.56155e-18)
(1.28281 0.317748 7.76813e-19)
(1.31043 0.308653 -4.98944e-17)
(1.33502 0.295326 4.9737e-17)
(1.35583 0.278335 -2.46218e-17)
(1.1108 0.265111 2.08179e-16)
(1.13795 0.279175 0)
(1.16542 0.290665 0)
(1.19365 0.298707 1.00401e-16)
(1.22258 0.30299 1.56975e-18)
(1.25135 0.303345 -7.80075e-19)
(1.2792 0.299719 7.7612e-19)
(1.30535 0.292214 4.8698e-17)
(1.32908 0.281063 -4.93185e-17)
(1.34957 0.266785 2.46067e-17)
(1.12092 0.254573 0)
(1.14544 0.26638 -1.02893e-16)
(1.1704 0.275798 1.0196e-16)
(1.19605 0.282381 -1.01155e-16)
(1.22248 0.285846 0)
(1.24896 0.286044 -7.80378e-19)
(1.2748 0.282924 -9.863e-17)
(1.29937 0.276555 0)
(1.32208 0.267109 0)
(1.34206 0.255048 -2.46343e-17)
(1.12982 0.244364 0)
(1.15215 0.254162 1.20171e-21)
(1.17481 0.261808 -1.01877e-16)
(1.19807 0.267109 1.01116e-16)
(1.22211 0.269826 7.84877e-19)
(1.24632 0.269831 -1.00699e-16)
(1.27015 0.26708 -2.73879e-22)
(1.29305 0.261618 0)
(1.31458 0.253571 0)
(1.33387 0.243338 0)
(1.13716 0.234377 -1.03497e-16)
(1.15764 0.242531 2.05241e-16)
(1.17833 0.248732 7.95246e-19)
(1.1995 0.252949 -1.01868e-16)
(1.22138 0.254999 -7.84887e-19)
(1.2435 0.254788 -9.99527e-17)
(1.2654 0.252284 1.50072e-16)
(1.28667 0.247522 -3.87465e-19)
(1.30695 0.240599 -4.90824e-17)
(1.32539 0.231851 -2.46904e-17)
(1.14304 0.22458 2.06605e-16)
(1.16189 0.231429 -1.02485e-16)
(1.18087 0.236488 1.01709e-16)
(1.20023 0.239823 1.00251e-16)
(1.22023 0.241311 1.02038e-16)
(1.24048 0.240888 9.92057e-17)
(1.26063 0.238546 -4.97954e-17)
(1.28033 0.234316 -3.87791e-19)
(1.29936 0.228279 3.86566e-19)
(1.31689 0.220726 2.47181e-17)
(1.14759 0.214967 -1.03511e-16)
(1.16499 0.220763 -1.01948e-16)
(1.18249 0.224922 -1.01626e-16)
(1.20029 0.227561 -1.01002e-16)
(1.21865 0.228601 -9.96844e-17)
(1.23725 0.228005 9.84582e-17)
(1.25582 0.225783 -4.90477e-17)
(1.2741 0.221968 0)
(1.29192 0.216636 9.91378e-17)
(1.30851 0.210045 0)
(1.15098 0.205559 0)
(1.16709 0.21049 1.02213e-16)
(1.18327 0.213937 -1.01543e-16)
(1.19972 0.216035 7.88773e-19)
(1.21666 0.216731 -1.0204e-16)
(1.23382 0.21601 -1.00055e-16)
(1.251 0.213893 5.06359e-17)
(1.26798 0.210419 -4.97214e-17)
(1.28466 0.205659 -9.92382e-17)
(1.30034 0.199848 0)
(1.15337 0.19638 -1.0272e-16)
(1.16831 0.200597 0)
(1.18333 0.203479 1.0146e-16)
(1.1986 0.205157 1.01715e-16)
(1.21429 0.205597 1.26768e-22)
(1.23021 0.204797 9.93072e-17)
(1.24616 0.202784 0)
(1.26198 0.1996 4.97631e-17)
(1.27761 0.195315 4.98633e-17)
(1.29241 0.190148 -2.49963e-17)
(1.1549 0.18745 1.02528e-16)
(1.1688 0.191078 -1.01943e-16)
(1.18278 0.193508 1.01376e-16)
(1.19701 0.194862 -1.001e-16)
(1.21161 0.195118 1.99374e-16)
(1.22642 0.194277 -9.85588e-17)
(1.24129 0.192372 -7.79984e-19)
(1.25608 0.189444 -3.89098e-19)
(1.27076 0.185564 -4.93314e-17)
(1.28474 0.180935 2.48305e-17)
(1.15571 0.178789 0)
(1.16867 0.181929 1.01809e-16)
(1.18172 0.183998 -1.01294e-16)
(1.19502 0.185102 -7.87885e-19)
(1.20867 0.185225 -9.89033e-17)
(1.22251 0.184375 -7.82486e-19)
(1.23643 0.182582 -7.80451e-19)
(1.2503 0.179888 7.78865e-19)
(1.26411 0.176359 4.977e-17)
(1.27732 0.172188 2.48588e-17)
(1.15591 0.170408 1.02543e-16)
(1.16803 0.173144 -3.97169e-19)
(1.18025 0.174922 0)
(1.19273 0.175834 0)
(1.20553 0.175867 7.84946e-19)
(1.21851 0.17503 -5.16611e-17)
(1.23157 0.173353 1.33981e-23)
(1.24462 0.170873 5.02787e-17)
(1.25765 0.167657 3.89227e-19)
(1.27016 0.163882 -2.4887e-17)
(1.15562 0.162316 -1.01954e-16)
(1.16698 0.164718 -1.0154e-16)
(1.17846 0.166262 -1.01128e-16)
(1.1902 0.167026 -7.87292e-19)
(1.20223 0.167 1.32268e-23)
(1.21444 0.166192 5.01126e-17)
(1.22675 0.164631 7.81428e-19)
(1.23906 0.162351 1.00491e-22)
(1.25138 0.159414 0)
(1.26325 0.155989 0)
(1.15493 0.154517 -1.02161e-16)
(1.16561 0.156641 2.0321e-16)
(1.17642 0.157997 1.01045e-16)
(1.18749 0.158647 0)
(1.19883 0.158585 -9.96906e-17)
(1.21035 0.157818 4.93463e-17)
(1.22197 0.156372 0)
(1.23362 0.154279 -5.03633e-17)
(1.2453 0.151594 -2.45709e-17)
(1.25657 0.148478 0)
(1.15391 0.147012 1.01971e-16)
(1.16398 0.148906 -1.01669e-16)
(1.17418 0.150109 0)
(1.18465 0.150672 9.99113e-17)
(1.19537 0.15059 1.00476e-16)
(1.20627 0.149872 -1.00293e-16)
(1.21728 0.148538 -4.92903e-17)
(1.22832 0.146617 0)
(1.23941 0.144164 2.49863e-17)
(1.25014 0.141325 0)
(1.15264 0.139799 1.01385e-16)
(1.16215 0.141501 0)
(1.17181 0.14258 0)
(1.18173 0.143077 -9.98737e-17)
(1.19189 0.142988 -1.10891e-23)
(1.20222 0.142321 4.85959e-17)
(1.21267 0.141095 5.08864e-17)
(1.22316 0.139336 -3.91069e-19)
(1.23371 0.137092 1.95408e-19)
(1.24395 0.134504 1.95318e-19)
(1.15117 0.132873 -2.02394e-16)
(1.16018 0.134415 1.01007e-16)
(1.16934 0.135392 7.87473e-19)
(1.17876 0.135839 -7.86113e-19)
(1.18841 0.135751 -5.02388e-17)
(1.19823 0.135137 0)
(1.20816 0.134014 0)
(1.21815 0.132404 5.00994e-17)
(1.22821 0.130354 0)
(1.23799 0.127992 0)
(1.14956 0.126225 1.01404e-16)
(1.15811 0.127633 -1.01269e-16)
(1.16682 0.128528 7.86828e-19)
(1.17578 0.128936 -1.02155e-16)
(1.18496 0.128857 5.10241e-17)
(1.19431 0.128296 0)
(1.20377 0.12727 -7.83829e-19)
(1.2133 0.125799 -4.97499e-17)
(1.2229 0.123924 1.95806e-19)
(1.23226 0.121768 1.95764e-19)
(1.14783 0.119849 -1.01216e-16)
(1.15597 0.121143 3.93529e-19)
(1.16426 0.12197 -1.00632e-16)
(1.17281 0.12235 1.00546e-16)
(1.18156 0.122282 7.84985e-19)
(1.19048 0.121774 -7.84604e-19)
(1.19952 0.120839 4.9412e-17)
(1.20862 0.119495 7.84129e-19)
(1.2178 0.117782 0)
(1.22676 0.115813 0)
(1.14603 0.113733 -3.92807e-19)
(1.15379 0.114931 1.01004e-16)
(1.1617 0.115701 1.0055e-16)
(1.16987 0.11606 -1.01292e-16)
(1.17823 0.116007 5.10246e-17)
(1.18676 0.115549 0)
(1.1954 0.114699 -5.02272e-17)
(1.20411 0.113474 -3.92391e-19)
(1.2129 0.111909 3.92405e-19)
(1.22149 0.11011 0)
(1.14418 0.107867 3.92654e-19)
(1.15159 0.108982 -1.00872e-16)
(1.15916 0.109705 -1.00467e-16)
(1.16697 0.110049 1.00469e-16)
(1.17498 0.110012 -1.0048e-16)
(1.18314 0.109602 0)
(1.19142 0.108831 0)
(1.19977 0.107715 -3.92723e-19)
(1.2082 0.106286 -2.4943e-17)
(1.21645 0.104643 2.53402e-17)
(1.1423 0.10224 9.98724e-17)
(1.1494 0.103284 -9.99555e-17)
(1.15666 0.103967 1.00385e-16)
(1.16414 0.104299 -5.09999e-17)
(1.17182 0.104279 7.8503e-19)
(1.17965 0.103915 0)
(1.18759 0.103217 -5.02892e-17)
(1.1956 0.102201 -3.93055e-19)
(1.2037 0.100896 2.55583e-17)
(1.21164 0.0993957 -2.51725e-17)
(1.14042 0.0968397 0)
(1.14723 0.0978222 1.00216e-16)
(1.15419 0.0984711 -1.00303e-16)
(1.16139 0.0987936 5.09805e-17)
(1.16876 0.0987911 4.94551e-17)
(1.17628 0.0984701 0)
(1.18391 0.0978404 4.9534e-17)
(1.19161 0.0969157 3.93395e-19)
(1.1994 0.0957252 1.96806e-19)
(1.20704 0.094355 1.96887e-19)
(1.13855 0.0916555 3.90211e-19)
(1.14509 0.0925835 -3.9096e-19)
(1.15179 0.0932025 1.00221e-16)
(1.15871 0.0935182 7.84011e-19)
(1.16581 0.0935324 -5.02402e-17)
(1.17304 0.0932513 4.95129e-17)
(1.18038 0.0926844 -4.95645e-17)
(1.1878 0.0918443 2.4017e-17)
(1.19529 0.0907586 5.91015e-19)
(1.20266 0.0895075 -1.97113e-19)
(1.1367 0.0866756 9.93211e-17)
(1.14299 0.087555 3.90449e-19)
(1.14946 0.0881476 0)
(1.15612 0.0884578 0)
(1.16296 0.0884878 2.37769e-23)
(1.16993 0.0882437 -5.03157e-17)
(1.17701 0.0877346 9.99774e-17)
(1.18416 0.0869724 3.94075e-19)
(1.19138 0.0859828 1.97209e-19)
(1.19849 0.084841 1.2827e-17)
(1.13488 0.0818889 -9.91387e-17)
(1.14096 0.0827243 -3.89939e-19)
(1.14719 0.0832931 -5.00284e-17)
(1.15363 0.0835986 0)
(1.16023 0.0836433 5.02404e-17)
(1.16696 0.0834334 0)
(1.17379 0.0829774 -4.96257e-17)
(1.18069 0.0822866 -2.6424e-17)
(1.18766 0.0813853 3.94819e-19)
(1.19454 0.0803436 1.40289e-23)
(1.13311 0.0772845 -9.97326e-17)
(1.13898 0.0780795 3.89431e-19)
(1.14501 0.0786263 4.99874e-17)
(1.15123 0.0789274 -7.83109e-19)
(1.15761 0.0789855 7.8501e-19)
(1.16412 0.0788069 0)
(1.17072 0.0783997 -7.88191e-19)
(1.17739 0.0777745 3.94728e-19)
(1.18413 0.0769542 1.97613e-19)
(1.19078 0.0760045 -1.2461e-17)
(1.13139 0.0728518 9.87751e-17)
(1.13707 0.0736092 3.88923e-19)
(1.14291 0.0741353 -7.8041e-19)
(1.14894 0.0744318 1.56562e-18)
(1.15512 0.074502 -7.8501e-19)
(1.16141 0.0743519 0)
(1.1678 0.0739893 -2.52378e-17)
(1.17426 0.0734244 0)
(1.18079 0.0726785 0)
(1.18723 0.0718132 1.26734e-17)
(1.12973 0.0685804 4.94903e-17)
(1.13524 0.0693024 0)
(1.14091 0.0698085 0)
(1.14675 0.0701003 -7.82507e-19)
(1.15274 0.070181 -4.94554e-17)
(1.15884 0.0700567 0)
(1.16504 0.0697349 2.60425e-17)
(1.1713 0.0692252 -1.18618e-18)
(1.17762 0.0685478 3.96035e-19)
(1.18387 0.06776 -1.2688e-17)
(1.12813 0.0644605 -9.91854e-17)
(1.13348 0.0651487 3.8791e-19)
(1.13899 0.0656353 7.79132e-19)
(1.14466 0.0659217 -5.16257e-17)
(1.15048 0.0660113 1.02051e-16)
(1.1564 0.0659103 -7.87499e-19)
(1.16242 0.0656256 2.52689e-17)
(1.1685 0.0651665 -3.95726e-19)
(1.17463 0.064552 1.98223e-19)
(1.1807 0.0638355 1.9848e-19)
(1.1266 0.0604824 4.89242e-17)
(1.13181 0.0611378 3.87405e-19)
(1.13716 0.0616051 0)
(1.14268 0.0618855 4.92601e-17)
(1.14834 0.0619825 -4.94553e-17)
(1.1541 0.0619022 2.52083e-17)
(1.15995 0.0616512 2.05874e-24)
(1.16586 0.0612385 -3.96062e-19)
(1.17182 0.0606818 3.9685e-19)
(1.17772 0.0600311 0)
(1.12514 0.056637 -3.84524e-19)
(1.13021 0.0572604 3.86901e-19)
(1.13543 0.0577083 0)
(1.14081 0.0579818 -5.00226e-17)
(1.14632 0.0580846 7.85e-19)
(1.15193 0.0580226 -5.12213e-17)
(1.15762 0.0578023 -2.53001e-17)
(1.16337 0.057432 -2.5766e-17)
(1.16917 0.0569285 1.98631e-19)
(1.17492 0.0563382 1.98939e-19)
(1.12376 0.0529153 -4.95133e-17)
(1.12871 0.0535071 4.98451e-17)
(1.1338 0.0539354 0)
(1.13905 0.0542012 5.07846e-17)
(1.14442 0.0543082 -7.85003e-19)
(1.14989 0.0542623 2.5225e-17)
(1.15544 0.0540696 0)
(1.16104 0.0537382 2.49945e-17)
(1.16669 0.0532836 5.96501e-19)
(1.1723 0.0527491 -1.9917e-19)
(1.12245 0.0493088 4.86568e-17)
(1.12729 0.0498693 3.85852e-19)
(1.13226 0.0502775 7.76579e-19)
(1.13739 0.0505346 -7.81001e-19)
(1.14264 0.0506444 0)
(1.14798 0.0506125 2.52334e-17)
(1.15339 0.0504447 -2.6123e-17)
(1.15886 0.0501488 2.58099e-17)
(1.16437 0.0497392 1.99041e-19)
(1.16985 0.0492561 1.2961e-17)
(1.12122 0.0458094 -4.89506e-17)
(1.12595 0.0463385 -4.93303e-17)
(1.13082 0.0467262 0)
(1.13584 0.0469737 0)
(1.14097 0.0470848 0)
(1.14619 0.0470647 -5.04836e-17)
(1.15149 0.0469194 7.9209e-19)
(1.15683 0.0466559 -2.66266e-17)
(1.16221 0.0462878 3.9849e-19)
(1.16756 0.0458522 -1.27764e-17)
(1.12007 0.042409 -3.81684e-19)
(1.12471 0.0429067 3.84894e-19)
(1.12948 0.0432733 -7.75306e-19)
(1.13439 0.0435102 7.80394e-19)
(1.13942 0.0436211 7.84989e-19)
(1.14453 0.0436112 -7.89067e-19)
(1.14971 0.0434859 2.457e-17)
(1.15494 0.043252 3.97755e-19)
(1.16021 0.0429221 3.98902e-19)
(1.16544 0.0425304 0)
(1.119 0.0391001 4.83917e-17)
(1.12355 0.0395661 3.84395e-19)
(1.12824 0.0399112 2.47895e-17)
(1.13306 0.0401365 7.80085e-19)
(1.13798 0.0402459 -4.9923e-24)
(1.143 0.0402443 -7.89328e-19)
(1.14808 0.0401369 0)
(1.1532 0.03993 0)
(1.15836 0.0396354 1.2778e-17)
(1.16348 0.0392843 0)
(1.11801 0.0358754 3.80344e-19)
(1.12248 0.0363095 -3.83896e-19)
(1.12709 0.0366322 -2.55432e-17)
(1.13182 0.0368451 4.78812e-24)
(1.13666 0.0369517 7.84986e-19)
(1.14158 0.0369568 2.52669e-17)
(1.14657 0.0368654 2.53939e-17)
(1.15159 0.0366831 -3.98428e-19)
(1.15665 0.0364211 -1.23915e-17)
(1.16168 0.0361076 0)
(1.1171 0.032728 -3.79654e-19)
(1.1215 0.0331296 3.83399e-19)
(1.12604 0.0334294 -2.47488e-17)
(1.13069 0.0336289 0)
(1.13545 0.0337316 0)
(1.14029 0.0337419 0)
(1.14519 0.0336645 -2.54096e-17)
(1.15013 0.0335048 -1.31594e-17)
(1.15509 0.0332728 4.00142e-19)
(1.16003 0.0329944 0)
(1.11627 0.0296509 -3.78966e-19)
(1.12061 0.0300196 3.82903e-19)
(1.12508 0.0302959 2.39557e-17)
(1.12966 0.030481 4.60125e-24)
(1.13435 0.0305786 7.84976e-19)
(1.13911 0.0305928 0)
(1.14393 0.0305278 7.94538e-19)
(1.14879 0.0303888 1.15742e-17)
(1.15367 0.0301846 -1.24172e-17)
(1.15854 0.0299388 0)
(1.11553 0.0266376 0)
(1.11981 0.0269729 2.4474e-17)
(1.12421 0.0272249 2.47082e-17)
(1.12873 0.0273949 -7.78867e-19)
(1.13335 0.0274864 7.84971e-19)
(1.13805 0.0275032 0)
(1.1428 0.0274491 1.35155e-17)
(1.14758 0.0273289 -1.19835e-18)
(1.15239 0.0271506 1.30316e-17)
(1.15718 0.0269352 2.01032e-19)
(1.11486 0.0236816 -3.77596e-19)
(1.11909 0.023983 -2.40604e-17)
(1.12344 0.02421 -2.39164e-17)
(1.12791 0.0243642 -4.45114e-24)
(1.13247 0.0244486 -7.84965e-19)
(1.1371 0.0244668 0)
(1.14179 0.0244224 -1.35239e-17)
(1.14651 0.0243195 3.99795e-19)
(1.15125 0.0241653 6.02082e-19)
(1.15597 0.0239783 -2.01267e-19)
(1.11427 0.0207766 3.76914e-19)
(1.11845 0.0210435 -3.81419e-19)
(1.12276 0.0212449 0)
(1.12718 0.0213825 0)
(1.13168 0.0214591 0)
(1.13626 0.0214778 -1.26543e-17)
(1.14089 0.0214418 -1.27362e-17)
(1.14556 0.0213548 -4.00132e-19)
(1.15024 0.021223 2.00904e-19)
(1.15491 0.0210628 2.01503e-19)
(1.11375 0.0179163 -3.76234e-19)
(1.1179 0.0181481 3.80926e-19)
(1.12217 0.0183235 1.30939e-17)
(1.12654 0.0184439 -1.32252e-17)
(1.131 0.0185119 0)
(1.13554 0.0185302 2.53169e-17)
(1.14012 0.0185016 1.27441e-17)
(1.14473 0.0184292 6.00714e-18)
(1.14936 0.0183186 -6.23446e-18)
(1.15398 0.0181836 2.01739e-19)
(1.11331 0.0150945 -1.23934e-17)
(1.11743 0.0152908 1.25543e-17)
(1.12166 0.0154396 -1.23136e-17)
(1.126 0.0155424 2.41071e-17)
(1.13043 0.0156011 7.84944e-19)
(1.13492 0.0156183 -2.53252e-17)
(1.13946 0.0155962 6.37598e-18)
(1.14403 0.0155375 -6.81391e-18)
(1.14861 0.0154467 6.84492e-18)
(1.15318 0.0153354 0)
(1.11295 0.0123052 1.2371e-17)
(1.11704 0.0124656 -3.79946e-19)
(1.12125 0.0125875 -7.68962e-19)
(1.12556 0.0126721 -1.16601e-17)
(1.12995 0.0127212 0)
(1.13441 0.0127366 1.26668e-17)
(1.13891 0.0127202 -7.17741e-18)
(1.14345 0.0126742 -5.2151e-18)
(1.14799 0.0126021 -6.04594e-19)
(1.15252 0.0125134 2.02213e-19)
(1.11266 0.00954219 -1.19746e-17)
(1.11673 0.00966651 -2.16963e-24)
(1.12092 0.00976136 7.6833e-19)
(1.1252 0.00982761 -1.55407e-18)
(1.12957 0.00986657 1.56985e-18)
(1.134 0.00987966 -7.1274e-18)
(1.13848 0.00986828 5.58588e-18)
(1.14298 0.00983401 3.61355e-18)
(1.14749 0.00977965 3.83309e-18)
(1.152 0.00971246 -2.02451e-19)
(1.11245 0.00679967 1.15795e-17)
(1.1165 0.00688773 -1.17478e-17)
(1.12067 0.0069553 0)
(1.12494 0.0070029 0)
(1.12929 0.00703135 7.84916e-19)
(1.1337 0.00704161 5.54535e-18)
(1.13815 0.0070346 -6.3878e-18)
(1.14263 0.0070114 2.81295e-18)
(1.14712 0.00697397 -3.02928e-18)
(1.1516 0.0069274 2.0269e-19)
(1.1123 0.00407171 3.72861e-19)
(1.11635 0.00412327 -3.78476e-19)
(1.12051 0.00416323 3.06828e-18)
(1.12477 0.00419177 -7.76418e-19)
(1.1291 0.00420925 3.13964e-18)
(1.1335 0.00421615 -2.37736e-18)
(1.13793 0.00421298 0)
(1.1424 0.00420031 -4.02194e-19)
(1.14687 0.00417927 4.04328e-19)
(1.15134 0.00415279 -8.11712e-19)
(1.11223 0.00135425 -3.73218e-19)
(1.11628 0.00137026 3.79064e-19)
(1.12043 0.00138295 -3.84341e-18)
(1.12468 0.00139226 7.78447e-19)
(1.12901 0.00139825 -1.57463e-18)
(1.1334 0.00140103 1.5904e-18)
(1.13783 0.00140071 0)
(1.14228 0.00139744 -4.03844e-19)
(1.14675 0.00139153 2.0304e-19)
(1.15121 0.00138388 1.0192e-18)
(2.38032 0.0583773 0)
(1.15972 0.00815595 0)
(0.951043 0.0158623 0)
(1.06151 0.0419174 0)
(1.08839 0.0518235 0)
(1.07822 0.0578055 0)
(1.07351 0.0663209 0)
(1.07273 0.0759564 0)
(1.07158 0.0858695 0)
(1.06992 0.0963473 0)
(1.06825 0.107659 0)
(1.06676 0.119917 0)
(1.06552 0.133218 0)
(1.06469 0.147679 0)
(1.06443 0.163413 0)
(1.06498 0.180511 0)
(1.0666 0.199019 0)
(1.06968 0.218879 0)
(1.07474 0.239754 0)
(1.08137 0.260242 0)
(2.39097 0.0364097 0)
(1.1364 0.014779 0)
(0.955704 0.0225991 0)
(1.06934 0.0418238 0)
(1.08982 0.0515306 0)
(1.07905 0.0586502 0)
(1.07567 0.0673953 0)
(1.07552 0.0769805 0)
(1.07479 0.0868903 0)
(1.07373 0.0973399 0)
(1.0728 0.108535 0)
(1.07212 0.120573 0)
(1.07178 0.133539 0)
(1.07193 0.147525 0)
(1.07275 0.162613 0)
(1.07445 0.178858 0)
(1.07732 0.196255 0)
(1.08172 0.214651 0)
(1.08807 0.233484 0)
(1.09543 0.251126 0)
(2.3958 0.0204694 0)
(1.12291 0.0200978 0)
(0.953855 0.0278472 0)
(1.07066 0.0412398 0)
(1.08944 0.0508722 0)
(1.079 0.0590923 0)
(1.0767 0.0680263 0)
(1.07726 0.0775149 0)
(1.07712 0.0873751 0)
(1.07673 0.097748 0)
(1.07656 0.108774 0)
(1.07668 0.120538 0)
(1.07718 0.133112 0)
(1.07822 0.146564 0)
(1.07998 0.160948 0)
(1.08267 0.176282 0)
(1.08652 0.192522 0)
(1.09185 0.209467 0)
(1.09899 0.226515 0)
(1.10713 0.242168 0)
(2.39924 0.0133212 0)
(1.11564 0.0205046 0)
(0.950638 0.0289412 0)
(1.06966 0.0402368 0)
(1.08826 0.0500416 0)
(1.0783 0.0589266 0)
(1.07687 0.0680442 0)
(1.07817 0.0775261 0)
(1.07869 0.0873555 0)
(1.07901 0.0976376 0)
(1.07957 0.10848 0)
(1.08044 0.119958 0)
(1.08174 0.132132 0)
(1.08359 0.145052 0)
(1.08618 0.158748 0)
(1.08969 0.173216 0)
(1.09434 0.188385 0)
(1.10037 0.204047 0)
(1.10806 0.219638 0)
(1.11678 0.233754 0)
(2.40239 0.0102795 0)
(1.11182 0.019609 0)
(0.948071 0.0285215 0)
(1.06835 0.0390564 0)
(1.087 0.0489346 0)
(1.07737 0.0581825 0)
(1.0766 0.0674643 0)
(1.07854 0.0769771 0)
(1.0797 0.0867742 0)
(1.08067 0.0969482 0)
(1.08192 0.10759 0)
(1.0835 0.118767 0)
(1.08551 0.130529 0)
(1.08809 0.142912 0)
(1.09139 0.15593 0)
(1.0956 0.169561 0)
(1.10089 0.183724 0)
(1.10746 0.198214 0)
(1.11554 0.21251 0)
(1.12464 0.225295 0)
(2.40559 0.00896093 0)
(1.11001 0.0188087 0)
(0.946417 0.0277889 0)
(1.06734 0.0378462 0)
(1.08598 0.0476482 0)
(1.07653 0.0570494 0)
(1.07619 0.0664236 0)
(1.07865 0.0759432 0)