/*--------------------------------*- C++ -*----------------------------------*\
  =========                 |
  \\      /  F ield         | OpenFOAM: The Open Source CFD Toolbox
   \\    /   O peration     | Website:  https://openfoam.org
    \\  /    A nd           | Version:  6
     \\/     M anipulation  |
\*---------------------------------------------------------------------------*/
FoamFile
{
    version     2.0;
    format      ascii;
    class       volScalarField;
    location    "0.7";
    object      p;
}
// * * * * * * * * * * * * * * * * * * * * * * * * * * * * * * * * * * * * * //

dimensions      [0 2 -2 0 0 0 0];

internalField   nonuniform List<scalar> 
5600
(
997.481
998.103
998.646
998.665
998.607
998.599
998.609
998.616
998.621
998.627
998.633
998.641
998.649
998.658
998.668
998.679
998.692
998.706
998.721
998.739
997.449
998.115
998.656
998.664
998.605
998.599
998.608
998.615
998.62
998.626
998.632
998.64
998.648
998.657
998.667
998.678
998.691
998.705
998.72
998.737
997.431
998.117
998.659
998.663
998.603
998.597
998.607
998.613
998.618
998.623
998.629
998.637
998.644
998.653
998.663
998.674
998.686
998.699
998.713
998.729
997.409
998.115
998.66
998.661
998.6
998.594
998.603
998.609
998.614
998.619
998.625
998.631
998.639
998.647
998.656
998.666
998.677
998.689
998.702
998.715
997.383
998.112
998.661
998.658
998.596
998.59
998.599
998.605
998.608
998.613
998.618
998.624
998.631
998.638
998.646
998.655
998.664
998.674
998.685
998.696
997.353
998.109
998.662
998.654
998.591
998.584
998.593
998.598
998.601
998.605
998.61
998.615
998.621
998.627
998.634
998.641
998.648
998.656
998.664
998.672
997.32
998.106
998.663
998.65
998.584
998.578
998.587
998.591
998.593
998.596
998.6
998.604
998.609
998.614
998.619
998.624
998.63
998.635
998.64
998.644
997.283
998.104
998.665
998.645
998.577
998.571
998.579
998.582
998.584
998.586
998.589
998.592
998.595
998.599
998.602
998.606
998.608
998.611
998.612
998.613
997.241
998.105
998.669
998.637
998.568
998.563
998.57
998.573
998.573
998.575
998.577
998.579
998.581
998.583
998.585
998.586
998.586
998.586
998.584
998.58
997.161
998.127
998.676
998.623
998.556
998.554
998.561
998.562
998.562
998.563
998.564
998.565
998.566
998.566
998.566
998.566
998.564
998.56
998.555
998.547
998.761
998.79
998.824
998.862
998.907
998.957
999.015
999.077
999.147
999.314
998.758
998.786
998.819
998.857
998.9
998.948
999.004
999.064
999.13
999.297
998.748
998.775
998.807
998.843
998.883
998.929
998.981
999.037
999.098
999.26
998.731
998.756
998.785
998.819
998.857
998.899
998.945
998.996
999.051
999.205
998.707
998.729
998.756
998.787
998.82
998.858
998.898
998.942
998.989
999.132
998.678
998.696
998.721
998.747
998.776
998.807
998.841
998.877
998.915
999.044
998.644
998.658
998.68
998.702
998.726
998.751
998.776
998.803
998.831
998.943
998.606
998.617
998.635
998.653
998.671
998.689
998.706
998.723
998.741
998.833
998.566
998.573
998.588
998.601
998.613
998.624
998.634
998.642
998.649
998.718
998.524
998.53
998.541
998.549
998.555
998.559
998.56
998.557
998.55
998.596
998.49
998.497
998.502
998.503
998.5
998.491
998.474
998.45
998.423
998.457
998.451
998.455
998.453
998.448
998.438
998.42
998.393
998.357
998.319
998.333
998.41
998.409
998.402
998.39
998.373
998.348
998.313
998.27
998.225
998.216
998.367
998.361
998.349
998.331
998.308
998.275
998.233
998.183
998.133
998.104
998.323
998.312
998.295
998.272
998.243
998.204
998.156
998.101
998.045
998
998.278
998.263
998.242
998.215
998.181
998.137
998.085
998.025
997.966
997.905
998.235
998.216
998.191
998.16
998.122
998.075
998.019
997.958
997.897
997.822
998.193
998.171
998.144
998.11
998.069
998.02
997.962
997.9
997.838
997.751
998.155
998.13
998.1
998.065
998.022
997.972
997.915
997.853
997.79
997.693
998.12
998.094
998.063
998.026
997.983
997.933
997.875
997.814
997.751
997.645
998.485
998.446
998.405
998.364
998.323
998.282
998.242
998.204
998.169
998.137
998.472
998.435
998.396
998.359
998.32
998.283
998.246
998.211
998.179
998.15
998.456
998.421
998.385
998.351
998.316
998.282
998.249
998.218
998.188
998.161
998.442
998.409
998.376
998.345
998.313
998.282
998.252
998.223
998.196
998.171
998.43
998.399
998.368
998.339
998.31
998.282
998.254
998.228
998.203
998.179
998.418
998.39
998.362
998.335
998.308
998.282
998.256
998.232
998.209
998.187
998.408
998.381
998.356
998.331
998.306
998.282
998.259
998.236
998.215
998.194
998.399
998.374
998.35
998.327
998.305
998.282
998.26
998.239
998.219
998.2
998.391
998.368
998.346
998.324
998.303
998.282
998.262
998.242
998.224
998.206
998.383
998.362
998.341
998.322
998.302
998.282
998.263
998.245
998.228
998.211
998.377
998.357
998.338
998.319
998.301
998.283
998.265
998.248
998.231
998.215
998.371
998.352
998.334
998.317
998.3
998.283
998.266
998.25
998.234
998.219
998.365
998.348
998.331
998.315
998.299
998.283
998.267
998.252
998.237
998.223
998.36
998.344
998.328
998.313
998.298
998.283
998.268
998.254
998.24
998.226
998.356
998.341
998.326
998.311
998.297
998.283
998.269
998.255
998.242
998.229
998.352
998.337
998.324
998.31
998.296
998.283
998.27
998.257
998.244
998.232
998.348
998.334
998.321
998.308
998.296
998.283
998.27
998.258
998.246
998.234
998.344
998.332
998.319
998.307
998.295
998.283
998.271
998.259
998.248
998.236
998.341
998.329
998.318
998.306
998.294
998.283
998.271
998.26
998.249
998.238
998.338
998.327
998.316
998.305
998.294
998.283
998.272
998.261
998.251
998.24
998.336
998.325
998.314
998.304
998.293
998.283
998.272
998.262
998.252
998.242
998.333
998.323
998.313
998.303
998.293
998.283
998.273
998.263
998.253
998.244
998.331
998.321
998.311
998.302
998.292
998.283
998.273
998.264
998.254
998.245
998.329
998.319
998.31
998.301
998.292
998.282
998.273
998.264
998.255
998.246
998.327
998.318
998.309
998.3
998.291
998.282
998.274
998.265
998.256
998.247
998.325
998.316
998.308
998.299
998.291
998.282
998.274
998.265
998.257
998.249
998.323
998.315
998.307
998.299
998.29
998.282
998.274
998.266
998.258
998.25
998.321
998.314
998.306
998.298
998.29
998.282
998.274
998.266
998.258
998.25
998.32
998.312
998.305
998.297
998.29
998.282
998.274
998.266
998.259
998.251
998.318
998.311
998.304
998.297
998.289
998.282
998.274
998.267
998.259
998.252
998.317
998.31
998.303
998.296
998.289
998.282
998.274
998.267
998.26
998.253
998.316
998.309
998.302
998.295
998.288
998.281
998.274
998.267
998.26
998.253
998.315
998.308
998.302
998.295
998.288
998.281
998.274
998.268
998.261
998.254
998.314
998.307
998.301
998.294
998.288
998.281
998.274
998.268
998.261
998.254
998.313
998.307
998.3
998.294
998.288
998.281
998.274
998.268
998.261
998.255
998.312
998.306
998.3
998.294
998.287
998.281
998.274
998.268
998.262
998.255
998.311
998.305
998.299
998.293
998.287
998.281
998.274
998.268
998.262
998.256
998.31
998.305
998.299
998.293
998.287
998.281
998.274
998.268
998.262
998.256
998.31
998.304
998.298
998.292
998.287
998.281
998.274
998.268
998.262
998.256
998.309
998.303
998.298
998.292
998.286
998.28
998.274
998.269
998.263
998.257
998.308
998.303
998.297
998.292
998.286
998.28
998.274
998.269
998.263
998.257
998.308
998.303
998.297
998.292
998.286
998.28
998.274
998.269
998.263
998.257
998.307
998.302
998.297
998.291
998.286
998.28
998.274
998.269
998.263
998.257
998.307
998.302
998.297
998.291
998.286
998.28
998.274
998.269
998.263
998.257
998.307
998.302
998.296
998.291
998.286
998.28
998.274
998.269
998.263
998.257
998.306
998.301
998.296
998.291
998.285
998.28
998.274
998.269
998.263
998.258
998.306
998.301
998.296
998.291
998.285
998.28
998.274
998.269
998.263
998.258
998.306
998.301
998.296
998.291
998.285
998.28
998.274
998.269
998.263
998.258
998.306
998.301
998.296
998.291
998.285
998.28
998.274
998.269
998.263
998.258
998.306
998.301
998.296
998.29
998.285
998.28
998.274
998.269
998.263
998.258
997
998.204
998.696
998.598
998.541
998.545
998.55
998.55
998.549
998.549
998.548
998.548
998.547
998.545
998.542
998.539
998.534
998.526
998.516
998.499
996.925
998.229
998.695
998.581
998.531
998.539
998.543
998.541
998.54
998.539
998.538
998.536
998.534
998.532
998.528
998.524
998.517
998.509
998.498
998.482
996.891
998.225
998.687
998.57
998.523
998.531
998.535
998.533
998.531
998.53
998.528
998.526
998.523
998.52
998.516
998.511
998.504
998.495
998.484
998.469
996.868
998.217
998.68
998.561
998.515
998.523
998.526
998.524
998.522
998.52
998.518
998.516
998.513
998.509
998.504
998.498
998.49
998.481
998.47
998.456
996.849
998.209
998.673
998.552
998.506
998.515
998.518
998.516
998.513
998.511
998.509
998.506
998.502
998.498
998.492
998.486
998.478
998.469
998.458
998.444
996.832
998.201
998.667
998.544
998.498
998.507
998.51
998.507
998.505
998.502
998.499
998.496
998.492
998.487
998.482
998.475
998.467
998.457
998.446
998.433
996.815
998.192
998.66
998.537
998.49
998.5
998.502
998.499
998.496
998.494
998.49
998.487
998.482
998.477
998.471
998.464
998.456
998.447
998.436
998.423
996.799
998.183
998.654
998.529
998.483
998.492
998.494
998.491
998.488
998.485
998.482
998.478
998.473
998.468
998.462
998.455
998.446
998.437
998.426
998.414
996.784
998.175
998.647
998.522
998.475
998.484
998.487
998.483
998.48
998.477
998.473
998.469
998.464
998.459
998.453
998.445
998.437
998.428
998.417
998.405
996.768
998.166
998.641
998.515
998.468
998.477
998.479
998.476
998.472
998.469
998.465
998.461
998.456
998.451
998.444
998.437
998.429
998.42
998.409
998.398
996.753
998.158
998.635
998.508
998.461
998.47
998.472
998.468
998.465
998.462
998.458
998.453
998.448
998.443
998.436
998.429
998.421
998.412
998.402
998.391
996.739
998.15
998.629
998.502
998.454
998.463
998.465
998.461
998.458
998.454
998.45
998.446
998.441
998.435
998.429
998.422
998.414
998.405
998.395
998.384
996.724
998.142
998.623
998.495
998.447
998.456
998.458
998.455
998.451
998.447
998.443
998.439
998.434
998.428
998.422
998.415
998.407
998.398
998.389
998.379
996.711
998.135
998.617
998.489
998.441
998.45
998.452
998.448
998.444
998.441
998.437
998.432
998.427
998.421
998.415
998.408
998.401
998.392
998.383
998.373
996.697
998.127
998.612
998.483
998.434
998.443
998.446
998.442
998.438
998.434
998.43
998.426
998.421
998.415
998.409
998.402
998.395
998.387
998.378
998.368
996.684
998.12
998.606
998.477
998.428
998.437
998.44
998.436
998.432
998.428
998.424
998.42
998.415
998.409
998.403
998.397
998.389
998.381
998.373
998.364
996.672
998.113
998.601
998.471
998.423
998.432
998.434
998.43
998.426
998.423
998.419
998.414
998.409
998.404
998.398
998.391
998.384
998.377
998.368
998.36
996.66
998.107
998.596
998.466
998.417
998.426
998.428
998.424
998.421
998.417
998.413
998.409
998.404
998.398
998.393
998.386
998.379
998.372
998.364
998.356
996.648
998.101
998.592
998.461
998.412
998.421
998.423
998.419
998.415
998.412
998.408
998.404
998.399
998.394
998.388
998.382
998.375
998.368
998.36
998.352
996.637
998.094
998.587
998.456
998.406
998.416
998.418
998.414
998.41
998.407
998.403
998.399
998.394
998.389
998.383
998.377
998.371
998.364
998.357
998.349
996.626
998.089
998.583
998.451
998.401
998.411
998.413
998.409
998.406
998.402
998.398
998.394
998.389
998.384
998.379
998.373
998.367
998.36
998.353
998.346
996.616
998.083
998.578
998.446
998.397
998.406
998.408
998.405
998.401
998.398
998.394
998.39
998.385
998.38
998.375
998.369
998.363
998.357
998.35
998.343
996.606
998.078
998.574
998.442
998.392
998.402
998.404
998.4
998.397
998.393
998.39
998.386
998.381
998.376
998.371
998.366
998.36
998.354
998.347
998.34
996.597
998.073
998.571
998.438
998.388
998.398
998.4
998.396
998.393
998.389
998.386
998.382
998.377
998.373
998.368
998.362
998.357
998.351
998.344
998.338
996.588
998.068
998.567
998.434
998.384
998.393
998.396
998.392
998.389
998.386
998.382
998.378
998.374
998.369
998.364
998.359
998.354
998.348
998.342
998.335
996.579
998.063
998.564
998.43
998.38
998.39
998.392
998.388
998.385
998.382
998.378
998.375
998.37
998.366
998.361
998.356
998.351
998.345
998.339
998.333
996.571
998.059
998.56
998.426
998.376
998.386
998.388
998.385
998.382
998.378
998.375
998.371
998.367
998.363
998.358
998.353
998.348
998.343
998.337
998.331
996.563
998.055
998.557
998.423
998.373
998.383
998.385
998.381
998.378
998.375
998.372
998.368
998.364
998.36
998.355
998.351
998.346
998.34
998.335
998.329
996.556
998.051
998.554
998.42
998.37
998.379
998.382
998.378
998.375
998.372
998.369
998.365
998.361
998.357
998.353
998.348
998.343
998.338
998.333
998.327
996.549
998.047
998.552
998.417
998.366
998.376
998.379
998.375
998.372
998.369
998.366
998.363
998.359
998.355
998.35
998.346
998.341
998.336
998.331
998.325
996.543
998.043
998.549
998.414
998.364
998.373
998.376
998.373
998.369
998.367
998.363
998.36
998.356
998.352
998.348
998.344
998.339
998.334
998.329
998.324
996.537
998.04
998.546
998.411
998.361
998.371
998.373
998.37
998.367
998.364
998.361
998.358
998.354
998.35
998.346
998.342
998.337
998.332
998.327
998.322
996.531
998.037
998.544
998.409
998.358
998.368
998.371
998.367
998.364
998.362
998.359
998.355
998.352
998.348
998.344
998.34
998.335
998.331
998.326
998.321
996.526
998.034
998.542
998.406
998.356
998.366
998.368
998.365
998.362
998.359
998.357
998.353
998.35
998.346
998.342
998.338
998.334
998.329
998.325
998.32
996.521
998.031
998.54
998.404
998.353
998.364
998.366
998.363
998.36
998.357
998.355
998.351
998.348
998.344
998.341
998.337
998.332
998.328
998.323
998.319
996.516
998.029
998.538
998.402
998.351
998.362
998.364
998.361
998.358
998.356
998.353
998.35
998.346
998.343
998.339
998.335
998.331
998.327
998.322
998.317
996.512
998.026
998.536
998.4
998.349
998.36
998.362
998.359
998.356
998.354
998.351
998.348
998.345
998.341
998.337
998.334
998.33
998.325
998.321
998.316
996.508
998.024
998.535
998.398
998.348
998.358
998.361
998.357
998.355
998.352
998.349
998.346
998.343
998.34
998.336
998.332
998.328
998.324
998.32
998.316
996.504
998.022
998.533
998.397
998.346
998.356
998.359
998.356
998.353
998.351
998.348
998.345
998.342
998.338
998.335
998.331
998.327
998.323
998.319
998.315
996.501
998.02
998.532
998.395
998.345
998.355
998.358
998.355
998.352
998.349
998.347
998.344
998.341
998.337
998.334
998.33
998.326
998.322
998.318
998.314
996.498
998.019
998.531
998.394
998.343
998.353
998.356
998.353
998.351
998.348
998.345
998.343
998.34
998.336
998.333
998.329
998.325
998.322
998.317
998.313
996.495
998.017
998.53
998.393
998.342
998.352
998.355
998.352
998.349
998.347
998.344
998.342
998.339
998.335
998.332
998.328
998.325
998.321
998.317
998.313
996.493
998.016
998.529
998.392
998.341
998.351
998.354
998.351
998.348
998.346
998.343
998.341
998.338
998.334
998.331
998.328
998.324
998.32
998.316
998.312
996.49
998.015
998.528
998.391
998.34
998.35
998.353
998.35
998.348
998.345
998.343
998.34
998.337
998.334
998.33
998.327
998.323
998.32
998.316
998.312
996.489
998.014
998.527
998.39
998.339
998.35
998.353
998.35
998.347
998.345
998.342
998.339
998.336
998.333
998.33
998.326
998.323
998.319
998.315
998.311
996.488
998.012
998.526
998.39
998.339
998.349
998.352
998.349
998.346
998.344
998.341
998.339
998.336
998.333
998.329
998.326
998.322
998.319
998.315
998.311
996.488
998.011
998.526
998.389
998.338
998.349
998.352
998.348
998.346
998.344
998.341
998.338
998.335
998.332
998.329
998.326
998.322
998.318
998.315
998.311
996.49
998.01
998.526
998.39
998.338
998.348
998.351
998.348
998.345
998.343
998.341
998.338
998.335
998.332
998.329
998.325
998.322
998.318
998.314
998.31
996.503
998.002
998.525
998.392
998.338
998.348
998.351
998.348
998.345
998.343
998.34
998.338
998.335
998.332
998.329
998.325
998.322
998.318
998.314
998.31
996.549
997.97
998.519
998.397
998.339
998.347
998.351
998.348
998.345
998.343
998.34
998.338
998.335
998.332
998.328
998.325
998.322
998.318
998.314
998.31
997.975
997.941
997.91
997.882
997.852
997.821
997.787
997.751
997.714
997.648
997.98
997.945
997.913
997.886
997.857
997.827
997.794
997.76
997.726
997.667
997.974
997.945
997.916
997.89
997.863
997.835
997.804
997.772
997.74
997.689
997.968
997.943
997.916
997.892
997.867
997.841
997.813
997.783
997.754
997.711
997.962
997.941
997.917
997.895
997.871
997.846
997.82
997.793
997.767
997.733
997.958
997.939
997.918
997.897
997.875
997.851
997.827
997.802
997.779
997.753
997.954
997.938
997.919
997.899
997.878
997.856
997.833
997.81
997.789
997.77
997.952
997.937
997.92
997.901
997.882
997.86
997.838
997.817
997.797
997.783
997.952
997.938
997.921
997.904
997.884
997.863
997.842
997.821
997.803
997.792
997.952
997.938
997.922
997.905
997.886
997.865
997.844
997.823
997.806
997.797
997.961
997.97
997.979
997.988
997.996
998.004
998.013
998.021
998.028
998.036
998.043
998.05
998.057
998.064
998.07
998.077
998.083
998.088
998.094
998.099
998.104
998.109
998.114
998.119
998.124
998.128
998.132
998.136
998.14
998.144
998.148
998.152
998.156
998.159
998.163
998.166
998.17
998.173
998.177
998.18
998.184
998.188
998.191
998.195
998.199
998.203
998.208
998.212
998.218
998.222
997.958
997.967
997.976
997.985
997.994
998.002
998.011
998.019
998.027
998.034
998.042
998.049
998.056
998.063
998.069
998.075
998.081
998.087
998.093
998.098
998.104
998.109
998.113
998.118
998.123
998.127
998.131
998.136
998.14
998.144
998.147
998.151
998.155
998.159
998.162
998.166
998.169
998.173
998.176
998.18
998.183
998.187
998.191
998.195
998.199
998.203
998.207
998.211
998.217
998.221
997.954
997.962
997.972
997.982
997.991
998
998.008
998.017
998.025
998.032
998.04
998.047
998.054
998.061
998.068
998.074
998.08
998.086
998.092
998.097
998.102
998.107
998.112
998.117
998.122
998.126
998.131
998.135
998.139
998.143
998.147
998.15
998.154
998.158
998.161
998.165
998.168
998.172
998.175
998.179
998.182
998.186
998.19
998.193
998.197
998.201
998.205
998.21
998.215
998.219
997.949
997.956
997.968
997.978
997.988
997.997
998.006
998.014
998.022
998.03
998.038
998.045
998.053
998.059
998.066
998.073
998.079
998.085
998.09
998.096
998.101
998.106
998.111
998.116
998.121
998.125
998.129
998.134
998.138
998.142
998.145
998.149
998.153
998.157
998.16
998.164
998.167
998.171
998.174
998.178
998.181
998.185
998.188
998.192
998.195
998.199
998.203
998.207
998.212
998.216
997.943
997.95
997.963
997.975
997.984
997.994
998.003
998.012
998.02
998.028
998.036
998.044
998.051
998.058
998.065
998.071
998.077
998.083
998.089
998.094
998.1
998.105
998.11
998.115
998.119
998.124
998.128
998.132
998.136
998.14
998.144
998.148
998.152
998.155
998.159
998.162
998.166
998.169
998.172
998.176
998.179
998.183
998.186
998.189
998.193
998.196
998.2
998.204
998.208
998.212
997.938
997.944
997.959
997.971
997.981
997.991
998.001
998.01
998.018
998.027
998.034
998.042
998.049
998.056
998.063
998.07
998.076
998.082
998.088
998.093
998.098
998.104
998.108
998.113
998.118
998.122
998.127
998.131
998.135
998.139
998.143
998.146
998.15
998.154
998.157
998.161
998.164
998.167
998.171
998.174
998.177
998.18
998.183
998.187
998.19
998.193
998.196
998.2
998.203
998.207
997.934
997.939
997.955
997.969
997.979
997.989
997.999
998.008
998.017
998.025
998.033
998.041
998.048
998.055
998.062
998.068
998.075
998.08
998.086
998.092
998.097
998.102
998.107
998.112
998.116
998.121
998.125
998.129
998.133
998.137
998.141
998.145
998.148
998.152
998.155
998.159
998.162
998.165
998.168
998.171
998.174
998.178
998.181
998.184
998.186
998.189
998.192
998.195
998.198
998.201
997.931
997.936
997.954
997.967
997.978
997.988
997.998
998.007
998.016
998.024
998.032
998.04
998.047
998.054
998.061
998.067
998.073
998.079
998.085
998.091
998.096
998.101
998.106
998.11
998.115
998.119
998.124
998.128
998.132
998.136
998.139
998.143
998.146
998.15
998.153
998.156
998.16
998.163
998.166
998.169
998.172
998.174
998.177
998.18
998.183
998.185
998.188
998.19
998.193
998.195
997.929
997.935
997.954
997.968
997.979
997.989
997.999
998.008
998.016
998.024
998.032
998.04
998.047
998.054
998.06
998.067
998.073
998.078
998.084
998.089
998.095
998.1
998.104
998.109
998.114
998.118
998.122
998.126
998.13
998.134
998.137
998.141
998.144
998.148
998.151
998.154
998.157
998.16
998.163
998.166
998.168
998.171
998.174
998.176
998.178
998.181
998.183
998.185
998.187
998.188
997.93
997.942
997.96
997.973
997.984
997.993
998.002
998.011
998.019
998.027
998.034
998.041
998.048
998.054
998.061
998.067
998.073
998.078
998.084
998.089
998.094
998.099
998.103
998.108
998.112
998.117
998.121
998.125
998.128
998.132
998.136
998.139
998.142
998.146
998.149
998.152
998.154
998.157
998.16
998.163
998.165
998.167
998.17
998.172
998.174
998.176
998.177
998.179
998.18
998.182
997.982
997.976
997.977
997.983
997.991
997.999
998.007
998.014
998.022
998.029
998.036
998.043
998.05
998.056
998.062
998.068
998.074
998.079
998.084
998.089
998.094
998.099
998.104
998.108
998.112
998.116
998.12
998.124
998.128
998.131
998.135
998.138
998.141
998.144
998.147
998.15
998.153
998.155
998.158
998.16
998.163
998.165
998.167
998.169
998.17
998.172
998.173
998.174
998.175
998.176
997.995
997.992
997.991
997.995
998.001
998.007
998.014
998.021
998.027
998.034
998.04
998.047
998.053
998.059
998.064
998.07
998.075
998.081
998.086
998.09
998.095
998.1
998.104
998.108
998.112
998.116
998.12
998.124
998.127
998.131
998.134
998.137
998.14
998.143
998.146
998.149
998.151
998.154
998.156
998.158
998.16
998.162
998.164
998.166
998.167
998.168
998.169
998.17
998.171
998.171
998.003
998.003
998.002
998.006
998.011
998.016
998.022
998.027
998.033
998.039
998.045
998.051
998.057
998.062
998.067
998.073
998.078
998.083
998.087
998.092
998.096
998.101
998.105
998.109
998.113
998.117
998.12
998.124
998.127
998.13
998.133
998.136
998.139
998.142
998.145
998.147
998.15
998.152
998.154
998.156
998.158
998.16
998.161
998.163
998.164
998.165
998.166
998.166
998.166
998.166
998.011
998.013
998.013
998.016
998.02
998.024
998.029
998.034
998.039
998.045
998.05
998.055
998.06
998.066
998.07
998.075
998.08
998.085
998.089
998.093
998.098
998.102
998.106
998.11
998.113
998.117
998.12
998.124
998.127
998.13
998.133
998.136
998.138
998.141
998.143
998.146
998.148
998.15
998.152
998.154
998.156
998.157
998.159
998.16
998.161
998.161
998.162
998.162
998.162
998.161
998.021
998.023
998.023
998.025
998.029
998.033
998.037
998.041
998.046
998.05
998.055
998.06
998.065
998.069
998.074
998.078
998.083
998.087
998.091
998.095
998.099
998.103
998.107
998.11
998.114
998.117
998.12
998.123
998.127
998.129
998.132
998.135
998.137
998.14
998.142
998.144
998.146
998.148
998.15
998.152
998.153
998.155
998.156
998.157
998.157
998.158
998.158
998.158
998.158
998.157
998.03
998.032
998.033
998.035
998.037
998.041
998.044
998.048
998.052
998.056
998.06
998.065
998.069
998.073
998.077
998.081
998.085
998.089
998.093
998.097
998.101
998.104
998.108
998.111
998.114
998.118
998.121
998.124
998.126
998.129
998.132
998.134
998.137
998.139
998.141
998.143
998.145
998.147
998.148
998.15
998.151
998.152
998.153
998.154
998.154
998.154
998.154
998.154
998.153
998.152
998.04
998.041
998.042
998.044
998.046
998.049
998.052
998.055
998.058
998.062
998.066
998.069
998.073
998.077
998.081
998.084
998.088
998.092
998.095
998.099
998.102
998.106
998.109
998.112
998.115
998.118
998.121
998.124
998.126
998.129
998.131
998.134
998.136
998.138
998.14
998.142
998.143
998.145
998.146
998.148
998.149
998.15
998.15
998.151
998.151
998.151
998.151
998.15
998.149
998.148
998.05
998.051
998.051
998.053
998.055
998.057
998.059
998.062
998.065
998.068
998.071
998.074
998.078
998.081
998.084
998.088
998.091
998.094
998.098
998.101
998.104
998.107
998.11
998.113
998.116
998.119
998.121
998.124
998.126
998.129
998.131
998.133
998.135
998.137
998.139
998.14
998.142
998.143
998.145
998.146
998.147
998.147
998.148
998.148
998.148
998.148
998.148
998.147
998.146
998.144
998.06
998.06
998.06
998.061
998.063
998.064
998.066
998.069
998.071
998.074
998.076
998.079
998.082
998.085
998.088
998.091
998.094
998.097
998.1
998.103
998.106
998.109
998.111
998.114
998.117
998.119
998.122
998.124
998.126
998.128
998.131
998.133
998.134
998.136
998.138
998.139
998.141
998.142
998.143
998.144
998.145
998.145
998.145
998.146
998.145
998.145
998.144
998.143
998.142
998.14
998.069
998.069
998.069
998.07
998.071
998.072
998.074
998.075
998.077
998.079
998.082
998.084
998.087
998.089
998.092
998.095
998.097
998.1
998.103
998.105
998.108
998.11
998.113
998.115
998.118
998.12
998.122
998.124
998.126
998.128
998.13
998.132
998.134
998.135
998.137
998.138
998.139
998.14
998.141
998.142
998.143
998.143
998.143
998.143
998.143
998.142
998.141
998.14
998.139
998.137
998.079
998.078
998.078
998.078
998.079
998.079
998.08
998.082
998.083
998.085
998.087
998.089
998.091
998.093
998.096
998.098
998.1
998.103
998.105
998.107
998.11
998.112
998.114
998.117
998.119
998.121
998.123
998.125
998.127
998.128
998.13
998.132
998.133
998.135
998.136
998.137
998.138
998.139
998.14
998.14
998.141
998.141
998.141
998.141
998.14
998.14
998.139
998.137
998.136
998.134
998.088
998.086
998.086
998.086
998.086
998.086
998.087
998.088
998.089
998.091
998.092
998.094
998.096
998.097
998.099
998.101
998.103
998.106
998.108
998.11
998.112
998.114
998.116
998.118
998.12
998.122
998.123
998.125
998.127
998.128
998.13
998.131
998.133
998.134
998.135
998.136
998.137
998.138
998.138
998.139
998.139
998.139
998.139
998.139
998.138
998.137
998.136
998.135
998.133
998.131
998.096
998.094
998.094
998.094
998.093
998.093
998.094
998.094
998.095
998.096
998.097
998.099
998.1
998.102
998.103
998.105
998.107
998.108
998.11
998.112
998.114
998.116
998.117
998.119
998.121
998.122
998.124
998.126
998.127
998.129
998.13
998.131
998.132
998.133
998.134
998.135
998.136
998.136
998.137
998.137
998.137
998.137
998.137
998.137
998.136
998.135
998.134
998.132
998.13
998.128
998.105
998.102
998.102
998.101
998.1
998.1
998.1
998.1
998.101
998.101
998.102
998.103
998.104
998.105
998.107
998.108
998.11
998.111
998.113
998.114
998.116
998.117
998.119
998.12
998.122
998.123
998.125
998.126
998.127
998.129
998.13
998.131
998.132
998.133
998.134
998.134
998.135
998.135
998.136
998.136
998.136
998.136
998.135
998.135
998.134
998.133
998.132
998.13
998.128
998.126
998.112
998.11
998.109
998.108
998.107
998.106
998.106
998.106
998.106
998.106
998.107
998.108
998.108
998.109
998.11
998.111
998.113
998.114
998.115
998.117
998.118
998.119
998.12
998.122
998.123
998.124
998.126
998.127
998.128
998.129
998.13
998.131
998.132
998.132
998.133
998.134
998.134
998.134
998.135
998.135
998.134
998.134
998.134
998.133
998.132
998.131
998.13
998.128
998.126
998.124
998.12
998.117
998.116
998.114
998.113
998.112
998.112
998.111
998.111
998.111
998.111
998.112
998.112
998.113
998.114
998.115
998.116
998.117
998.118
998.119
998.12
998.121
998.122
998.123
998.124
998.125
998.126
998.127
998.128
998.129
998.13
998.131
998.132
998.132
998.133
998.133
998.133
998.134
998.134
998.134
998.133
998.133
998.132
998.132
998.131
998.13
998.128
998.127
998.125
998.122
998.126
998.123
998.122
998.12
998.119
998.118
998.117
998.116
998.116
998.116
998.116
998.116
998.116
998.117
998.117
998.118
998.119
998.119
998.12
998.121
998.122
998.123
998.124
998.125
998.125
998.126
998.127
998.128
998.129
998.13
998.13
998.131
998.131
998.132
998.132
998.133
998.133
998.133
998.133
998.133
998.132
998.132
998.131
998.13
998.129
998.128
998.127
998.125
998.123
998.121
998.133
998.13
998.128
998.126
998.125
998.123
998.122
998.121
998.121
998.12
998.12
998.12
998.12
998.12
998.12
998.121
998.121
998.122
998.122
998.123
998.124
998.125
998.125
998.126
998.127
998.127
998.128
998.129
998.129
998.13
998.13
998.131
998.131
998.132
998.132
998.132
998.132
998.132
998.132
998.132
998.131
998.131
998.13
998.129
998.128
998.127
998.126
998.124
998.122
998.12
998.139
998.135
998.134
998.132
998.13
998.128
998.127
998.126
998.125
998.125
998.124
998.124
998.124
998.124
998.124
998.124
998.124
998.124
998.125
998.125
998.126
998.126
998.127
998.127
998.128
998.128
998.129
998.129
998.13
998.13
998.131
998.131
998.131
998.132
998.132
998.132
998.132
998.132
998.131
998.131
998.131
998.13
998.129
998.128
998.127
998.126
998.124
998.123
998.121
998.119
998.144
998.141
998.139
998.137
998.135
998.133
998.132
998.13
998.129
998.129
998.128
998.127
998.127
998.127
998.127
998.127
998.127
998.127
998.127
998.127
998.128
998.128
998.128
998.129
998.129
998.129
998.13
998.13
998.131
998.131
998.131
998.131
998.131
998.132
998.132
998.132
998.131
998.131
998.131
998.13
998.13
998.129
998.128
998.127
998.126
998.125
998.124
998.122
998.12
998.118
998.149
998.146
998.144
998.142
998.139
998.138
998.136
998.135
998.133
998.132
998.132
998.131
998.13
998.13
998.13
998.129
998.129
998.129
998.129
998.129
998.129
998.13
998.13
998.13
998.13
998.13
998.131
998.131
998.131
998.131
998.131
998.132
998.132
998.132
998.131
998.131
998.131
998.131
998.13
998.13
998.129
998.129
998.128
998.127
998.126
998.124
998.123
998.121
998.12
998.118
998.154
998.151
998.148
998.146
998.144
998.142
998.14
998.139
998.137
998.136
998.135
998.134
998.133
998.133
998.132
998.132
998.132
998.131
998.131
998.131
998.131
998.131
998.131
998.131
998.131
998.132
998.132
998.132
998.132
998.132
998.132
998.132
998.132
998.132
998.131
998.131
998.131
998.131
998.13
998.129
998.129
998.128
998.127
998.126
998.125
998.124
998.122
998.121
998.119
998.117
998.159
998.155
998.153
998.15
998.148
998.146
998.144
998.142
998.141
998.139
998.138
998.137
998.136
998.136
998.135
998.134
998.134
998.134
998.133
998.133
998.133
998.133
998.133
998.133
998.133
998.133
998.133
998.132
998.132
998.132
998.132
998.132
998.132
998.132
998.131
998.131
998.131
998.13
998.13
998.129
998.128
998.128
998.127
998.126
998.125
998.123
998.122
998.121
998.119
998.117
998.163
998.159
998.157
998.154
998.152
998.149
998.148
998.146
998.144
998.143
998.141
998.14
998.139
998.138
998.137
998.137
998.136
998.136
998.135
998.135
998.135
998.134
998.134
998.134
998.134
998.134
998.133
998.133
998.133
998.133
998.133
998.132
998.132
998.132
998.132
998.131
998.131
998.13
998.13
998.129
998.128
998.127
998.126
998.125
998.124
998.123
998.122
998.12
998.119
998.117
998.166
998.163
998.16
998.158
998.155
998.153
998.151
998.149
998.147
998.146
998.144
998.143
998.142
998.141