/*--------------------------------*- C++ -*----------------------------------*\
  =========                 |
  \\      /  F ield         | OpenFOAM: The Open Source CFD Toolbox
   \\    /   O peration     | Website:  https://openfoam.org
    \\  /    A nd           | Version:  6
     \\/     M anipulation  |
\*---------------------------------------------------------------------------*/
FoamFile
{
    version     2.0;
    format      ascii;
    class       volVectorField;
    location    "0.7";
    object      U;
}
// * * * * * * * * * * * * * * * * * * * * * * * * * * * * * * * * * * * * * //

dimensions      [0 1 -1 0 0 0 0];

internalField   nonuniform List<vector> 
5600
(
(1.51339 0.0031677 3.74677e-19)
(1.13003 0.00380286 -6.43622e-18)
(0.985224 0.00374725 6.42169e-18)
(1.0034 0.0032903 0)
(1.01971 0.00322588 0)
(1.01595 0.00361644 0)
(1.00866 0.00412916 -1.19807e-17)
(1.00262 0.00465159 1.19536e-17)
(0.996576 0.00522535 0)
(0.989678 0.00588254 0)
(0.981849 0.00662948 0)
(0.973075 0.00747244 0)
(0.963253 0.00842439 0)
(0.95224 0.00950178 -2.35869e-17)
(0.939879 0.0107225 2.35341e-17)
(0.925999 0.0121043 -4.69641e-17)
(0.910406 0.0136601 4.68594e-17)
(0.892901 0.0153867 0)
(0.873286 0.0172419 -3.64475e-19)
(0.851408 0.0190885 0)
(1.52021 0.00582934 -3.69454e-19)
(1.1267 0.00846015 6.34716e-18)
(0.984787 0.00931323 -6.33518e-18)
(1.0051 0.0093187 0)
(1.02092 0.00974874 0)
(1.01667 0.0108265 2.44594e-17)
(1.00935 0.0121787 1.95442e-22)
(1.00339 0.0136617 -7.38239e-19)
(0.997395 0.0153259 1.23689e-22)
(0.990557 0.0172204 -2.35385e-17)
(0.982815 0.0193676 0)
(0.974159 0.0217923 -4.76323e-17)
(0.964485 0.0245314 4.68107e-17)
(0.953657 0.0276301 0)
(0.941527 0.031138 0)
(0.927934 0.0351045 0)
(0.912695 0.0395641 0)
(0.895621 0.0445042 -4.63744e-17)
(0.876513 0.0498018 4.66489e-17)
(0.855134 0.055105 4.55097e-17)
(1.52883 0.00649186 0)
(1.12578 0.0131345 0)
(0.983749 0.0154861 0)
(1.00589 0.0154177 0)
(1.02202 0.0161295 2.34388e-17)
(1.0177 0.0179291 -2.41355e-17)
(1.01051 0.0201364 -1.4606e-18)
(1.00475 0.0225579 -7.29224e-19)
(0.99895 0.0252896 2.3301e-17)
(0.992317 0.0284045 -2.18124e-17)
(0.984817 0.0319354 -1.45202e-18)
(0.97645 0.0359225 4.71218e-17)
(0.967123 0.0404248 -4.77762e-17)
(0.956714 0.0455138 1.44565e-18)
(0.945095 0.0512685 4.61934e-17)
(0.932124 0.0577666 -9.36929e-17)
(0.917638 0.0650623 -1.4399e-18)
(0.901462 0.0731339 4.59911e-17)
(0.883398 0.0817817 -1.43513e-18)
(0.863128 0.0904545 -7.16894e-19)
(1.53953 0.00800026 0)
(1.12577 0.01716 -1.44547e-18)
(0.982413 0.0206395 0)
(1.00632 0.0208347 0)
(1.0231 0.0220232 0)
(1.01895 0.0246022 0)
(1.01204 0.0276953 1.43911e-18)
(1.00664 0.0310758 2.44411e-17)
(1.0012 0.0348802 -2.29808e-17)
(0.994936 0.0392052 -1.4349e-18)
(0.987852 0.0440948 2.86699e-18)
(0.979967 0.0496041 0)
(0.971207 0.0558122 -4.43517e-17)
(0.961475 0.062815 4.4308e-17)
(0.950669 0.0707177 4.5693e-17)
(0.938679 0.0796239 -4.56479e-17)
(0.925374 0.0896061 9.26329e-17)
(0.9106 0.100637 -9.11177e-17)
(0.89418 0.11245 1.42234e-18)
(0.875742 0.124324 1.42153e-18)
(1.55217 0.00963273 -5.6114e-18)
(1.12589 0.0206898 7.08605e-18)
(0.98087 0.0250149 -1.13425e-17)
(1.00676 0.0255395 -1.13371e-17)
(1.02435 0.0272818 2.26656e-17)
(1.02048 0.0306689 2.26554e-17)
(1.01398 0.0346649 -2.26459e-17)
(1.00906 0.0390162 1.41478e-18)
(1.00411 0.04389 1.41419e-18)
(0.998362 0.049401 4.52355e-17)
(0.991856 0.0556023 -9.04328e-17)
(0.984635 0.0625616 1.41212e-18)
(0.976652 0.0703759 4.659e-17)
(0.967843 0.0791614 1.41122e-18)
(0.958142 0.0890453 -4.37296e-17)
(0.94748 0.100152 4.79407e-17)
(0.935768 0.112571 1.40942e-18)
(0.922886 0.126268 0)
(0.908695 0.140918 1.40821e-18)
(0.892802 0.155649 1.408e-18)
(1.56655 0.0111947 5.4911e-18)
(1.12592 0.0237732 -5.54819e-18)
(0.979146 0.0286749 1.38864e-18)
(1.00736 0.0294677 0)
(1.0259 0.0317945 2.22258e-17)
(1.02237 0.036021 -2.22304e-17)
(1.01634 0.0409374 1.38969e-18)
(1.012 0.0462641 -4.72594e-17)
(1.00764 0.0521929 -2.78068e-18)
(1.00252 0.0588499 8.89947e-17)
(0.996725 0.0662938 -4.72878e-17)
(0.990322 0.0746024 -1.3911e-18)
(0.983299 0.0838868 -4.73068e-17)
(0.975628 0.094279 -4.59247e-17)
(0.967291 0.105923 8.76903e-17)
(0.958266 0.118958 8.63157e-17)
(0.948511 0.133483 -9.05088e-17)
(0.937953 0.149461 8.77412e-17)
(0.9265 0.166511 -1.79693e-16)
(0.91377 0.183633 8.77872e-17)
(1.58246 0.0127675 0)
(1.12556 0.0263207 0)
(0.977195 0.0314181 -1.35766e-18)
(1.00827 0.0324674 2.17408e-17)
(1.02787 0.0354773 -2.17601e-17)
(1.02467 0.0406055 -1.36115e-18)
(1.01916 0.0464664 -1.36237e-18)
(1.01544 0.0527667 1.36357e-18)
(1.01173 0.0597201 1.36478e-18)
(1.00731 0.0674599 0)
(1.00231 0.0760481 4.51168e-17)
(0.996841 0.0855711 1.93331e-22)
(0.990924 0.0961508 -4.24567e-17)
(0.984571 0.10793 -8.6359e-17)
(0.977809 0.121062 1.75612e-16)
(0.970671 0.135696 -8.65094e-17)
(0.96317 0.151934 8.79596e-17)
(0.95528 0.169735 -8.666e-17)
(0.946968 0.188678 -8.81124e-17)
(0.937879 0.207662 8.68142e-17)
(1.59963 0.0149678 0)
(1.12411 0.0280156 1.32239e-18)
(0.974864 0.0327304 -2.12039e-17)
(1.00965 0.0343938 2.25654e-17)
(1.03036 0.0383493 -2.12705e-17)
(1.02738 0.0444489 2.39678e-17)
(1.02235 0.0512699 0)
(1.01927 0.0585278 1.33584e-18)
(1.01622 0.0664479 0)
(1.01253 0.0751713 -1.34015e-18)
(1.0084 0.0847668 4.29543e-17)
(1.00395 0.0953284 -4.30235e-17)
(0.999255 0.106985 -8.61861e-17)
(0.994354 0.119886 8.49761e-17)
(0.989327 0.134186 0)
(0.98426 0.150034 0)
(0.979227 0.167534 8.67438e-17)
(0.974251 0.186647 1.73253e-22)
(0.969366 0.20693 -8.70235e-17)
(0.964256 0.227256 8.85197e-17)
(1.61779 0.0206105 -4.45589e-18)
(1.1196 0.0272259 4.50573e-18)
(0.972211 0.0309244 0)
(1.01204 0.0351343 -1.94219e-18)
(1.03338 0.0406999 -2.07644e-17)
(1.03029 0.0477458 -2.21148e-17)
(1.02572 0.0555011 8.34543e-17)
(1.02327 0.0637014 -4.31339e-17)
(1.02088 0.0725207 -4.19269e-17)
(1.01795 0.0821149 4.33407e-17)
(1.01473 0.092573 -8.42564e-17)
(1.01137 0.103997 1.68917e-16)
(1.00797 0.116517 1.71673e-22)
(1.00461 0.130278 -8.48657e-17)
(1.00141 0.145428 0)
(0.998524 0.162106 8.52758e-17)
(0.996073 0.18041 -1.70964e-16)
(0.994151 0.200313 8.56885e-17)
(0.992893 0.221385 0)
(0.992067 0.242487 0)
(1.6373 0.0329676 -5.56576e-18)
(1.10643 0.0196735 4.37938e-18)
(0.971224 0.0236268 0)
(1.01749 0.0350518 2.07982e-17)
(1.03684 0.0432001 -2.02321e-17)
(1.03292 0.0508423 -4.0592e-17)
(1.029 0.0593754 -1.68299e-22)
(1.02726 0.0684899 8.17047e-17)
(1.02551 0.0781405 -8.19669e-17)
(1.02337 0.0885014 4.11152e-17)
(1.02111 0.0997092 -8.24956e-17)
(1.0189 0.111876 8.27619e-17)
(1.01684 0.125123 -8.30298e-17)
(1.01506 0.139583 8.3299e-17)
(1.0137 0.155384 8.35696e-17)
(1.01297 0.172637 -8.38417e-17)
(1.01308 0.191417 0)
(1.01421 0.211721 -8.43896e-17)
(1.01662 0.23327 8.46661e-17)
(1.02016 0.254965 8.49198e-17)
(0.823957 0.0206957 0)
(0.786681 0.0229034 0)
(0.741919 0.0254347 4.24313e-17)
(0.687619 0.0283386 -2.30316e-17)
(0.621049 0.031618 -2.51853e-17)
(0.538739 0.0351134 4.1665e-17)
(0.437012 0.038261 -1.54743e-17)
(0.312361 0.0397147 3.49202e-17)
(0.163625 0.0367756 0)
(0.0457428 0.0208351 0)
(0.828392 0.0600383 -1.84112e-17)
(0.791889 0.0667599 -5.93424e-17)
(0.74789 0.0744956 -2.13428e-17)
(0.694497 0.0833926 2.3169e-17)
(0.628975 0.093464 2.53316e-17)
(0.54781 0.104219 -5.58644e-17)
(0.447199 0.113961 4.66685e-17)
(0.323381 0.118561 -8.77153e-17)
(0.174166 0.109489 -1.00451e-17)
(0.0519775 0.062238 6.422e-17)
(0.837848 0.0985623 1.84872e-17)
(0.802776 0.109632 -1.98628e-17)
(0.760255 0.122402 4.28646e-17)
(0.70862 0.137086 4.6538e-17)
(0.645129 0.153704 -5.0891e-17)
(0.566181 0.171431 -2.80613e-17)
(0.467711 0.187455 3.12648e-17)
(0.345317 0.194908 -5.28964e-17)
(0.19512 0.17938 8.07949e-17)
(0.064455 0.102134 -1.52689e-16)
(0.852694 0.135409 3.70008e-17)
(0.8196 0.150659 0)
(0.779149 0.168247 0)
(0.730008 0.188423 -4.65731e-17)
(0.669401 0.211211 5.09291e-17)
(0.593591 0.235445 2.02325e-21)
(0.498127 0.257218 0)
(0.377626 0.267024 7.05918e-17)
(0.225895 0.244976 -6.06477e-17)
(0.0827742 0.139312 1.88098e-16)
(0.872682 0.169326 -3.69054e-17)
(0.842026 0.188448 0)
(0.804148 0.210524 8.55527e-17)
(0.758133 0.235786 0)
(0.701139 0.264261 5.0773e-17)
(0.629244 0.29444 5.59895e-17)
(0.5375 0.321345 0)
(0.419266 0.332971 1.40681e-16)
(0.265426 0.304465 -2.01408e-17)
(0.10624 0.172653 -7.0251e-17)
(0.897139 0.199402 1.91897e-21)
(0.869295 0.221981 -1.57625e-16)
(0.834408 0.248111 -2.55706e-21)
(0.792043 0.277951 0)
(0.739254 0.311525 -5.044e-17)
(0.671895 0.346979 -5.56012e-17)
(0.584423 0.378293 0)
(0.468716 0.391124 -1.39601e-16)
(0.312224 0.356247 -1.59768e-16)
(0.133908 0.201195 2.32045e-17)
(0.925128 0.225004 7.20457e-22)
(0.900362 0.250583 1.06126e-21)
(0.868784 0.280279 1.68418e-16)
(0.830472 0.314136 -1.23098e-21)
(0.782327 0.352158 -9.98448e-17)
(0.719943 0.39213 -1.10019e-16)
(0.637108 0.427017 -3.06131e-17)
(0.524052 0.44032 3.44866e-17)
(0.364426 0.399115 1.18319e-16)
(0.164597 0.224176 2.28864e-16)
(0.955587 0.245798 -1.68921e-21)
(0.933977 0.273963 7.71064e-17)
(0.905898 0.306736 -1.66266e-16)
(0.871902 0.344044 -4.50904e-17)
(0.828654 0.385839 2.46223e-16)
(0.771489 0.429519 1.0847e-16)
(0.693485 0.467057 -1.20634e-16)
(0.583116 0.480006 0)
(0.419994 0.432466 3.87814e-17)
(0.196983 0.241172 -4.04574e-16)
(0.987417 0.261878 -1.18112e-21)
(0.968506 0.292218 -7.59119e-17)
(0.943934 0.327647 3.85028e-21)
(0.914373 0.367906 -8.87084e-17)
(0.876163 0.412858 9.68292e-17)
(0.824444 0.459489 5.32886e-17)
(0.751545 0.4988 5.92263e-17)
(0.644035 0.510611 -3.32975e-17)
(0.477152 0.456694 3.79884e-17)
(0.229766 0.252283 1.75891e-16)
(1.01863 0.274827 -6.9449e-17)
(1.00131 0.306887 -7.45127e-17)
(0.980399 0.344599 8.02747e-17)
(0.955433 0.387324 8.69848e-17)
(0.922544 0.434707 -1.89815e-16)
(0.876724 0.483227 0)
(0.809347 0.522952 0)
(0.704699 0.532335 -3.25484e-17)
(0.533291 0.471737 3.70839e-17)
(0.260935 0.257279 0)
(1.04732 0.295098 6.79208e-17)
(1.03075 0.328114 7.29529e-17)
(1.01341 0.366124 0)
(0.992304 0.409 -8.53284e-17)
(0.963842 0.455574 0)
(0.922614 0.501559 -1.02665e-16)
(0.858888 0.536478 -5.71032e-17)
(0.754912 0.538935 -6.42837e-17)
(0.578063 0.470843 -1.46918e-16)
(0.28489 0.25272 1.7044e-16)
(1.07835 0.313324 1.55978e-21)
(1.06529 0.346859 -1.48367e-16)
(1.05141 0.384325 2.14976e-21)
(1.03373 0.42606 8.68109e-17)
(1.00862 0.470005 0)
(0.969961 0.511055 1.04519e-16)
(0.906816 0.538333 0)
(0.799814 0.53112 1.31027e-16)
(0.614798 0.454238 1.48707e-20)
(0.302484 0.238301 -1.73933e-16)
(1.11075 0.327439 7.00428e-17)
(1.10162 0.36047 -7.52494e-17)
(1.09108 0.396703 2.43515e-16)
(1.07636 0.436294 -8.80934e-17)
(1.05366 0.476454 -9.62814e-17)
(1.01614 0.511415 -5.30612e-17)
(0.951773 0.530098 2.31863e-21)
(0.839977 0.512757 6.6581e-17)
(0.645813 0.427618 2.66628e-16)
(0.315651 0.218123 4.42514e-17)
(1.14419 0.336625 -1.41754e-16)
(1.13868 0.368427 0)
(1.13109 0.402678 -4.39556e-21)
(1.11869 0.439147 8.91793e-17)
(1.09737 0.474474 2.43744e-16)
(1.05959 0.502451 5.37417e-17)
(0.992424 0.512078 1.19713e-16)
(0.874424 0.484956 -1.01235e-16)
(0.670439 0.393151 -1.93183e-16)
(0.324287 0.194093 1.79647e-16)
(1.17794 0.340574 7.15483e-17)
(1.17552 0.370482 7.68741e-17)
(1.17024 0.402016 -1.65904e-16)
(1.15928 0.434467 -4.50314e-17)
(1.13806 0.464042 -1.96949e-16)
(1.09843 0.484309 -1.6289e-16)
(1.02674 0.484663 -2.41961e-16)
(0.901104 0.448473 1.36467e-16)
(0.686925 0.352126 0)
(0.327773 0.167412 -2.04546e-16)
(1.211 0.339082 1.08057e-16)
(1.21097 0.366493 0)
(1.20717 0.394652 0)
(1.19652 0.42234 0)
(1.17398 0.445474 0)
(1.13079 0.457613 1.09409e-16)
(1.05286 0.448854 1.21917e-16)
(0.918392 0.404711 0)
(0.694175 0.306241 0)
(0.325913 0.139314 -9.17018e-17)
(1.24231 0.332169 -3.61725e-17)
(1.24382 0.356564 -8.50269e-22)
(1.24043 0.380792 -4.19472e-17)
(1.22882 0.403154 4.5548e-17)
(1.20341 0.419428 -4.98175e-17)
(1.155 0.423376 1.37387e-16)
(1.06933 0.406076 -3.06242e-17)
(0.925245 0.355477 6.91153e-17)
(0.691782 0.257434 -1.98039e-17)
(0.318889 0.111016 9.22123e-17)
(1.2708 0.320092 7.24591e-17)
(1.27283 0.341055 -3.89289e-17)
(1.26869 0.360929 0)
(1.2547 0.377599 -4.56243e-17)
(1.22486 0.386869 0)
(1.16967 0.382908 -5.50509e-17)
(1.0751 0.35801 -3.06765e-17)
(0.921175 0.302742 3.46199e-17)
(0.6799 0.207656 0)
(0.307167 0.0836158 -1.15496e-17)
(1.29546 0.303307 -5.42842e-17)
(1.29691 0.320551 3.8885e-17)
(1.29076 0.335787 0)
(1.27302 0.346597 0)
(1.23733 0.348972 4.98411e-17)
(1.17414 0.337679 -2.7492e-17)
(1.06999 0.306428 -3.06388e-17)
(0.906568 0.248482 -6.9158e-17)
(0.659388 0.158768 3.96329e-17)
(0.291479 0.0580778 -5.18999e-17)
(1.31559 0.282434 5.40817e-17)
(1.31546 0.295689 -5.56992e-22)
(1.30614 0.306017 -2.09017e-17)
(1.28334 0.310858 0)
(1.2405 0.306586 -2.48212e-17)
(1.16827 0.288781 -1.36885e-17)
(1.05411 0.252743 3.81376e-17)
(0.881848 0.194398 8.60671e-18)
(0.630899 0.112467 -4.4383e-17)
(0.272312 0.0352308 5.16513e-17)
(1.06046 0.270976 -4.18114e-16)
(1.0893 0.287547 1.03424e-16)
(1.11868 0.300769 0)
(1.14897 0.309788 1.02301e-16)
(1.17979 0.314348 -3.26966e-23)
(1.21022 0.314264 -1.56409e-18)
(1.23936 0.309501 7.78068e-19)
(1.26633 0.300214 -4.99751e-17)
(1.29027 0.286726 4.98174e-17)
(1.31043 0.269592 -2.46616e-17)
(1.07014 0.258318 2.08514e-16)
(1.09675 0.272228 0)
(1.12374 0.283499 0)
(1.1515 0.29132 1.00563e-16)
(1.17993 0.295397 1.57228e-18)
(1.20818 0.295561 -7.81329e-19)
(1.23548 0.291761 7.77374e-19)
(1.26107 0.284098 4.87767e-17)
(1.28424 0.272806 -4.93983e-17)
(1.30416 0.258394 2.46465e-17)
(1.0795 0.247662 0)
(1.10357 0.259329 -1.03059e-16)
(1.12812 0.2686 1.02124e-16)
(1.1534 0.275039 -1.01318e-16)
(1.17943 0.27837 0)
(1.20547 0.27844 -7.81633e-19)
(1.23087 0.275198 -9.87894e-17)
(1.25496 0.26871 0)
(1.27718 0.259151 0)
(1.29666 0.246974 -2.46742e-17)
(1.08783 0.237414 0)
(1.10977 0.247081 1.14223e-21)
(1.13209 0.254624 -1.02041e-16)
(1.15503 0.259833 1.01279e-16)
(1.17874 0.262467 7.86143e-19)
(1.20259 0.262392 -1.00862e-16)
(1.22604 0.259561 -2.6162e-22)
(1.24854 0.254015 0)
(1.26965 0.24588 0)
(1.28849 0.235551 0)
(1.09479 0.227449 -1.03664e-16)
(1.11494 0.235481 2.05571e-16)
(1.13533 0.241606 7.96527e-19)
(1.15621 0.245763 -1.02032e-16)
(1.17781 0.247765 -7.86153e-19)
(1.19961 0.247508 -1.00114e-16)
(1.22119 0.244955 1.50314e-16)
(1.2421 0.240136 -3.88091e-19)
(1.26201 0.233146 -4.91617e-17)
(1.28007 0.224321 -2.47303e-17)
(1.10044 0.217723 2.06938e-16)
(1.11901 0.224465 -1.0265e-16)
(1.13772 0.229463 1.01873e-16)
(1.15683 0.232758 1.00412e-16)
(1.17656 0.234217 1.02202e-16)
(1.19652 0.233769 9.93658e-17)
(1.21637 0.231398 -4.98758e-17)
(1.23577 0.22713 -3.88418e-19)
(1.25446 0.221043 3.87207e-19)
(1.27164 0.213429 2.47581e-17)
(1.10491 0.208228 -1.03678e-16)
(1.12208 0.213931 -1.02112e-16)
(1.13931 0.218041 -1.0179e-16)
(1.15687 0.220649 -1.01165e-16)
(1.17498 0.221668 -9.98452e-17)
(1.19331 0.221057 9.86171e-17)
(1.2116 0.218817 -4.91269e-17)
(1.22959 0.214976 0)
(1.24709 0.209605 9.92981e-17)
(1.26336 0.202965 0)
(1.10834 0.198978 0)
(1.12424 0.203829 1.02378e-16)
(1.14017 0.207235 -1.01706e-16)
(1.15639 0.209305 7.90045e-19)
(1.17307 0.209983 -1.02205e-16)
(1.18998 0.209249 -1.00217e-16)
(1.20688 0.207117 5.07177e-17)
(1.22358 0.20362 -4.98017e-17)
(1.23996 0.198827 -9.93986e-17)
(1.25533 0.192975 0)
(1.11087 0.18999 -1.02886e-16)
(1.12561 0.19414 0)
(1.14039 0.196984 1.01623e-16)
(1.15542 0.198635 1.01879e-16)
(1.17087 0.199056 1.21873e-22)
(1.18652 0.198239 9.94675e-17)
(1.20219 0.196209 0)
(1.21773 0.193001 4.98435e-17)
(1.23307 0.188683 4.99439e-17)
(1.24757 0.183476 -2.50367e-17)
(1.1126 0.18128 1.02694e-16)
(1.12631 0.184849 -1.02107e-16)
(1.14006 0.187243 1.0154e-16)
(1.15405 0.188568 -1.00262e-16)
(1.1684 0.188799 1.99696e-16)
(1.18294 0.187936 -9.87178e-17)
(1.19753 0.186008 -7.81243e-19)
(1.21204 0.183051 -3.89727e-19)
(1.22642 0.179135 -4.94111e-17)
(1.2401 0.174464 2.48706e-17)
(1.11366 0.172857 0)
(1.12643 0.175945 1.01973e-16)
(1.13926 0.177977 -1.01457e-16)
(1.15232 0.179049 -7.89156e-19)
(1.16571 0.179142 -9.90628e-17)
(1.17928 0.178262 -7.83748e-19)
(1.19291 0.176439 -7.81711e-19)
(1.20649 0.173708 7.80123e-19)
(1.22 0.170137 4.98505e-17)
(1.23291 0.16592 2.4899e-17)
(1.11415 0.164729 1.02709e-16)
(1.12607 0.167417 -3.97809e-19)
(1.13807 0.169156 0)
(1.1503 0.170031 0)
(1.16283 0.170028 7.86213e-19)
(1.17554 0.169154 -5.17445e-17)
(1.18831 0.167437 1.28368e-23)
(1.20106 0.164913 5.03599e-17)
(1.21379 0.161647 3.89855e-19)
(1.226 0.15782 -2.49272e-17)
(1.11415 0.156897 -1.02119e-16)
(1.12532 0.159252 -1.01704e-16)
(1.13657 0.160755 -1.01291e-16)
(1.14806 0.161477 -7.88562e-19)
(1.15982 0.161408 1.26765e-23)
(1.17175 0.160556 5.01935e-17)
(1.18376 0.158948 7.82689e-19)
(1.19577 0.156616 9.45594e-23)
(1.20778 0.153621 0)
(1.21935 0.150136 0)
(1.11375 0.149361 -1.02326e-16)
(1.12424 0.151438 2.03537e-16)
(1.13481 0.152749 1.01208e-16)
(1.14563 0.153352 0)
(1.15671 0.153241 -9.98514e-17)
(1.16795 0.152424 4.9426e-17)
(1.17927 0.150923 0)
(1.19062 0.148769 -5.04446e-17)
(1.20198 0.14602 -2.46106e-17)
(1.21295 0.142838 0)
(1.11303 0.142116 1.02136e-16)
(1.12289 0.143962 -1.01833e-16)
(1.13286 0.145116 0)
(1.14307 0.145628 1.00072e-16)
(1.15353 0.145493 1.00638e-16)
(1.16414 0.144718 -1.00455e-16)
(1.17485 0.143323 -4.93698e-17)
(1.18559 0.141336 0)
(1.19636 0.13881 2.50266e-17)
(1.20679 0.135898 0)
(1.11203 0.135157 1.01549e-16)
(1.12133 0.136809 0)
(1.13075 0.137836 0)
(1.14041 0.138279 -1.00035e-16)
(1.15031 0.138132 -1.06468e-23)
(1.16036 0.137403 4.86743e-17)
(1.17051 0.136111 5.09685e-17)
(1.1807 0.13428 -3.91701e-19)
(1.19094 0.131959 1.95723e-19)
(1.20087 0.129291 1.95634e-19)
(1.11081 0.128476 -2.02721e-16)
(1.11961 0.129966 1.0117e-16)
(1.12853 0.130889 7.88742e-19)
(1.1377 0.131278 -7.87381e-19)
(1.14709 0.13113 -5.03198e-17)
(1.15663 0.130451 0)
(1.16627 0.129257 0)
(1.17596 0.127571 5.01803e-17)
(1.1857 0.125439 0)
(1.19517 0.122993 0)
(1.10942 0.122065 1.01568e-16)
(1.11776 0.123419 -1.01433e-16)
(1.12624 0.124257 7.88097e-19)
(1.13495 0.124606 -1.0232e-16)
(1.14388 0.124463 5.11064e-17)
(1.15295 0.123834 0)
(1.16213 0.122735 -7.85094e-19)
(1.17136 0.121184 -4.98302e-17)
(1.18065 0.119225 1.96122e-19)
(1.1897 0.11698 1.9608e-19)
(1.10791 0.115913 -1.01379e-16)
(1.11583 0.117152 3.94163e-19)
(1.12389 0.117921 -1.00794e-16)
(1.13219 0.11824 1.00708e-16)
(1.1407 0.118107 7.86252e-19)
(1.14935 0.117529 -7.8587e-19)
(1.1581 0.116519 4.94917e-17)
(1.16691 0.115094 7.85395e-19)
(1.17579 0.113294 0)
(1.18444 0.111234 0)
(1.10629 0.110012 -3.93456e-19)
(1.11384 0.111153 1.01167e-16)
(1.12153 0.111864 1.00712e-16)
(1.12945 0.112161 -1.01456e-16)
(1.13757 0.112042 5.11069e-17)
(1.14583 0.111514 0)
(1.15419 0.110588 -5.03083e-17)
(1.16262 0.10928 -3.93025e-19)
(1.17111 0.107627 3.93039e-19)
(1.17941 0.105736 0)
(1.10461 0.104349 3.93275e-19)
(1.11181 0.105407 -1.01034e-16)
(1.11916 0.106071 -1.00629e-16)
(1.12674 0.106351 1.00631e-16)
(1.1345 0.106248 -1.00642e-16)
(1.14241 0.105768 0)
(1.15042 0.104921 0)
(1.15849 0.103722 -3.93357e-19)
(1.16662 0.102204 -2.49833e-17)
(1.17459 0.100468 2.53811e-17)
(1.10288 0.0989148 1.00034e-16)
(1.10977 0.0999018 -1.00117e-16)
(1.11681 0.100525 1.00547e-16)
(1.12407 0.100794 -5.10821e-17)
(1.13152 0.100708 7.86296e-19)
(1.13909 0.100274 0)
(1.14677 0.0995009 -5.03704e-17)
(1.15451 0.0984023 -3.93689e-19)
(1.16232 0.0970099 2.55995e-17)
(1.16997 0.0954165 -2.52132e-17)
(1.10113 0.093698 0)
(1.10774 0.094623 1.00378e-16)
(1.1145 0.0952123 -1.00465e-16)
(1.12147 0.0954729 5.10627e-17)
(1.12861 0.0954053 4.95349e-17)
(1.13588 0.0950148 0)
(1.14326 0.0943105 4.96139e-17)
(1.1507 0.0933052 3.94029e-19)
(1.1582 0.092028 1.97124e-19)
(1.16557 0.0905658 1.97205e-19)
(1.09938 0.0886877 3.90842e-19)
(1.10572 0.0895586 -3.9159e-19)
(1.11222 0.0901188 1.00383e-16)
(1.11893 0.0903735 7.85275e-19)
(1.1258 0.0903236 -5.03213e-17)
(1.13279 0.0899744 4.95927e-17)
(1.13989 0.0893342 -4.96445e-17)
(1.14705 0.0884152 2.40558e-17)
(1.15427 0.0872445 5.91969e-19)
(1.16136 0.085903 -1.97431e-19)
(1.09764 0.0838733 9.94818e-17)
(1.10374 0.0846963 3.91079e-19)
(1.11001 0.0852311 0)
(1.11646 0.0854815 0)
(1.12308 0.0854488 2.29389e-23)
(1.12982 0.0851383 -5.03968e-17)
(1.13666 0.0845577 1.00139e-16)
(1.14356 0.0837185 3.9471e-19)
(1.15052 0.082646 1.97527e-19)
(1.15736 0.0814158 1.28477e-17)
(1.09592 0.0792444 -9.92991e-17)
(1.10181 0.0800244 -3.90568e-19)
(1.10785 0.0805366 -5.01091e-17)
(1.11408 0.0807837 0)
(1.12047 0.0807674 5.03214e-17)
(1.12697 0.0804929 0)
(1.13357 0.0799675 -4.97057e-17)
(1.14023 0.079202 -2.64667e-17)
(1.14694 0.0782203 3.95456e-19)
(1.15356 0.0770926 1.31435e-23)
(1.09424 0.0747907 -9.98939e-17)
(1.09993 0.0755315 3.90058e-19)
(1.10577 0.0760232 5.0068e-17)
(1.11179 0.0762676 -7.84372e-19)
(1.11796 0.0762665 7.86276e-19)
(1.12425 0.0760253 0)
(1.13062 0.075551 -7.89463e-19)
(1.13706 0.0748536 3.95365e-19)
(1.14355 0.0739556 1.97932e-19)
(1.14994 0.0729227 -1.24811e-17)
(1.0926 0.0705022 9.89349e-17)
(1.09811 0.0712069 3.8955e-19)
(1.10376 0.0716795 -7.81669e-19)
(1.10959 0.0719212 1.56815e-18)
(1.11556 0.0719342 -7.86276e-19)
(1.12165 0.0717237 0)
(1.12782 0.0712964 -2.52785e-17)
(1.13405 0.070662 0)
(1.14033 0.0698413 0)
(1.14652 0.0688958 1.26938e-17)
(1.09101 0.0663693 4.95704e-17)
(1.09635 0.0670402 0)
(1.10183 0.0674946 0)
(1.10749 0.0677334 -7.83769e-19)
(1.11328 0.0677591 -4.95351e-17)
(1.11917 0.0675767 0)
(1.12515 0.0671928 2.60845e-17)
(1.13119 0.0666163 -1.18809e-18)
(1.13728 0.0658672 3.96674e-19)
(1.14328 0.0650023 -1.27085e-17)
(1.08948 0.0623825 -9.93459e-17)
(1.09466 0.0630213 3.88535e-19)
(1.09999 0.0634581 7.80388e-19)
(1.10548 0.0636937 -5.1709e-17)
(1.1111 0.0637305 1.02215e-16)
(1.11683 0.0635737 -7.8877e-19)
(1.12263 0.0632296 2.53097e-17)
(1.12849 0.0627067 -3.96365e-19)
(1.13439 0.0620236 1.98543e-19)
(1.14023 0.0612334 1.988e-19)
(1.08802 0.0585327 4.90034e-17)
(1.09305 0.0591407 3.88029e-19)
(1.09824 0.0595602 0)
(1.10358 0.0597918 4.93395e-17)
(1.10904 0.0598383 -4.9535e-17)
(1.11461 0.0597047 2.52489e-17)
(1.12025 0.0593971 1.7471e-24)
(1.12594 0.0589235 -3.96702e-19)
(1.13168 0.0583014 3.97491e-19)
(1.13735 0.0575803 0)
(1.08661 0.0548112 -3.85147e-19)
(1.09152 0.0553892 3.87525e-19)
(1.09657 0.0557914 0)
(1.10177 0.0560183 -5.01033e-17)
(1.10709 0.056073 7.86266e-19)
(1.11251 0.0559603 -5.1304e-17)
(1.118 0.055686 -2.53409e-17)
(1.12354 0.0552578 -2.58076e-17)
(1.12912 0.0546923 1.98951e-19)
(1.13464 0.0540351 1.9926e-19)
(1.08528 0.0512095 -4.95934e-17)
(1.09007 0.0517579 4.99255e-17)
(1.095 0.0521427 0)
(1.10007 0.0523641 5.08665e-17)
(1.10526 0.0524254 -7.86269e-19)
(1.11054 0.0523313 2.52657e-17)
(1.11589 0.0520875 0)
(1.12129 0.0517013 2.50348e-17)
(1.12672 0.0511879 5.97464e-19)
(1.13211 0.0505901 -1.99491e-19)
(1.08402 0.0477193 4.87356e-17)
(1.0887 0.0482385 3.86477e-19)
(1.09351 0.0486054 7.77832e-19)
(1.09847 0.0488205 -7.8226e-19)
(1.10353 0.0488869 0)
(1.10869 0.0488094 2.52741e-17)
(1.11391 0.0485933 -2.61651e-17)
(1.11918 0.0482457 2.58515e-17)
(1.12448 0.0477807 1.99362e-19)
(1.12973 0.0472379 1.29819e-17)
(1.08283 0.0443327 -4.90298e-17)
(1.08741 0.0448228 -4.94099e-17)
(1.09212 0.0451715 0)
(1.09697 0.0453793 0)
(1.10192 0.0454494 0)
(1.10696 0.0453865 -5.0565e-17)
(1.11207 0.0451956 7.93368e-19)
(1.11721 0.0448835 -2.66696e-17)
(1.12239 0.0444633 3.99133e-19)
(1.12752 0.0439716 -1.2797e-17)
(1.08172 0.0410422 -3.82305e-19)
(1.0862 0.0415031 3.85515e-19)
(1.09082 0.0418329 -7.76556e-19)
(1.09557 0.0420325 7.81652e-19)
(1.10042 0.0421049 7.86255e-19)
(1.10535 0.0420548 -7.9034e-19)
(1.11035 0.0418868 2.46097e-17)
(1.11539 0.0416074 3.98397e-19)
(1.12045 0.0412288 3.99545e-19)
(1.12547 0.0407846 0)
(1.08068 0.0378402 4.847e-17)
(1.08508 0.0382717 3.85015e-19)
(1.08961 0.0385823 2.48295e-17)
(1.09427 0.0387726 7.81343e-19)
(1.09903 0.0388461 -4.87813e-24)
(1.10386 0.0388069 -7.90601e-19)
(1.10876 0.0386598 0)
(1.11369 0.0384105 0)
(1.11865 0.0380706 1.27986e-17)
(1.12357 0.0376706 0)
(1.07972 0.0347198 3.8096e-19)
(1.08405 0.0351216 -3.84515e-19)
(1.0885 0.0354122 -2.55844e-17)
(1.09307 0.0355925 4.68489e-24)
(1.09774 0.0356657 7.86252e-19)
(1.10249 0.035636 2.53076e-17)
(1.1073 0.0355077 2.54349e-17)
(1.11214 0.0352862 -3.99071e-19)
(1.117 0.0349821 -1.24115e-17)
(1.12183 0.0346235 0)
(1.07884 0.031674 -3.80269e-19)
(1.08309 0.0320457 3.84017e-19)
(1.08747 0.0323158 -2.47887e-17)
(1.09197 0.0324852 0)
(1.09657 0.032557 0)
(1.10123 0.0325352 0)
(1.10596 0.0324239 -2.54506e-17)
(1.11071 0.0322281 -1.31806e-17)
(1.11548 0.0319575 4.00787e-19)
(1.12023 0.0316375 0)
(1.07803 0.0286961 -3.7958e-19)
(1.08222 0.0290374 3.8352e-19)
(1.08654 0.0292863 2.39944e-17)
(1.09097 0.029444 4.50904e-24)
(1.0955 0.0295134 7.86242e-19)
(1.10009 0.0294982 0)
(1.10474 0.0294022 7.9582e-19)
(1.10941 0.0292302 1.15928e-17)
(1.11411 0.0289908 -1.24372e-17)
(1.11877 0.0287071 0)
(1.0773 0.0257798 0)
(1.08144 0.0260902 2.45134e-17)
(1.0857 0.0263174 2.4748e-17)
(1.09007 0.0264625 -7.80123e-19)
(1.09453 0.0265284 7.86237e-19)
(1.09906 0.0265186 0)
(1.10363 0.0264365 1.35373e-17)
(1.10824 0.0262865 -1.20029e-18)
(1.11286 0.0260764 1.30526e-17)
(1.11746 0.0258267 2.01357e-19)
(1.07664 0.0229187 -3.78207e-19)
(1.08074 0.0231978 -2.40992e-17)
(1.08494 0.0234026 -2.3955e-17)
(1.08926 0.0235345 -4.36777e-24)
(1.09366 0.0235961 -7.86231e-19)
(1.09813 0.0235905 0)
(1.10265 0.0235211 -1.35457e-17)
(1.1072 0.0233915 4.0044e-19)
(1.11175 0.0232089 6.03054e-19)
(1.11629 0.0229913 -2.01592e-19)
(1.07607 0.0201068 3.77524e-19)
(1.08011 0.020354 -3.82034e-19)
(1.08428 0.020536 0)
(1.08855 0.020654 0)
(1.0929 0.0207104 0)
(1.09732 0.0207082 -1.26747e-17)
(1.10178 0.0206501 -1.27568e-17)
(1.10627 0.0205396 -4.00778e-19)
(1.11077 0.0203828 2.01228e-19)
(1.11525 0.0201956 2.01828e-19)
(1.07556 0.0173381 -3.76843e-19)
(1.07957 0.017553 3.8154e-19)
(1.0837 0.0177116 1.3115e-17)
(1.08793 0.017815 -1.32465e-17)
(1.09224 0.0178656 0)
(1.09661 0.0178658 2.53577e-17)
(1.10103 0.0178182 1.27646e-17)
(1.10547 0.0177256 6.01683e-18)
(1.10992 0.0175932 -6.24452e-18)
(1.11434 0.0174348 2.02065e-19)
(1.07513 0.0146067 -1.24134e-17)
(1.07911 0.0147888 1.25745e-17)
(1.08321 0.0149236 -1.23334e-17)
(1.0874 0.015012 2.41459e-17)
(1.09167 0.0150562 7.8621e-19)
(1.09601 0.0150581 -2.53661e-17)
(1.10038 0.0150199 6.38626e-18)
(1.10478 0.014944 -6.8249e-18)
(1.10919 0.0148349 6.85596e-18)
(1.11357 0.0147039 0)
(1.07478 0.0119067 1.23911e-17)
(1.07873 0.0120558 -3.80558e-19)
(1.0828 0.0121664 -7.70202e-19)
(1.08697 0.0122394 -1.16789e-17)
(1.09121 0.0122766 0)
(1.09551 0.0122796 1.26872e-17)
(1.09985 0.01225 -7.18898e-18)
(1.10421 0.01219 -5.22351e-18)
(1.10858 0.0121029 -6.05569e-19)
(1.11293 0.011998 2.0254e-19)
(1.07449 0.00923266 -1.1994e-17)
(1.07843 0.0093483 -2.0653e-24)
(1.08248 0.00943443 7.69569e-19)
(1.08662 0.00949178 -1.55657e-18)
(1.09084 0.00952153 1.57238e-18)
(1.09511 0.00952498 -7.13889e-18)
(1.09942 0.00950339 5.59489e-18)
(1.10376 0.00945823 3.61938e-18)
(1.1081 0.00939222 3.83927e-18)
(1.11242 0.00931244 -2.02778e-19)
(1.07428 0.00657872 1.15983e-17)
(1.07821 0.00666071 -1.17668e-17)
(1.08224 0.00672213 0)
(1.08636 0.00676342 0)
(1.09056 0.00678533 7.86182e-19)
(1.09481 0.00678871 5.55429e-18)
(1.09911 0.00677441 -6.39811e-18)
(1.10342 0.00674343 2.81749e-18)
(1.10773 0.00669766 -3.03417e-18)
(1.11203 0.00664208 2.03017e-19)
(1.07414 0.0039392 3.73465e-19)
(1.07806 0.00398719 -3.79086e-19)
(1.08208 0.00402352 3.07322e-18)
(1.08619 0.0040483 -7.77669e-19)
(1.09038 0.00406185 3.1447e-18)
(1.09462 0.00406463 -2.38119e-18)
(1.09889 0.00405707 0)
(1.10319 0.00403971 -4.02842e-19)
(1.10749 0.00401365 4.0498e-19)
(1.11178 0.00398174 -8.13021e-19)
(1.07407 0.00131012 -3.73823e-19)
(1.07799 0.00132497 3.79675e-19)
(1.082 0.00133646 -3.84961e-18)
(1.08611 0.00134452 7.79702e-19)
(1.09029 0.00134921 -1.57717e-18)
(1.09452 0.0013506 1.59297e-18)
(1.09879 0.00134881 0)
(1.10308 0.00134395 -4.04496e-19)
(1.10737 0.00133635 2.03368e-19)
(1.11165 0.00132687 1.02084e-18)
(1.65249 0.0314333 0)
(1.0855 0.0111853 0)
(0.976485 0.0188218 0)
(1.02622 0.0359 0)
(1.03932 0.0452251 0)
(1.03435 0.0526101 0)
(1.03153 0.0613391 0)
(1.03049 0.0708524 0)
(1.02928 0.0807978 0)
(1.02785 0.0913557 0)
(1.02645 0.102706 0)
(1.02522 0.11496 0)
(1.02427 0.128222 0)
(1.02373 0.142603 0)
(1.02377 0.158213 0)
(1.02461 0.175135 0)
(1.0265 0.19341 0)
(1.02982 0.212966 0)
(1.03508 0.233467 0)
(1.04194 0.253585 0)
(1.65888 0.0210544 0)
(1.07375 0.0149375 0)
(0.978321 0.0224281 0)
(1.03008 0.0360844 0)
(1.04028 0.0453235 0)
(1.03516 0.0533193 0)
(1.03319 0.0622122 0)
(1.03272 0.0717241 0)
(1.03199 0.0816592 0)
(1.03115 0.092162 0)
(1.03045 0.103377 0)
(1.03 0.1154 0)
(1.02989 0.12832 0)
(1.03028 0.142224 0)
(1.03134 0.157192 0)
(1.03328 0.173274 0)
(1.03636 0.190457 0)
(1.04094 0.208581 0)
(1.04742 0.22709 0)
(1.05496 0.244417 0)
(1.66316 0.0136492 0)
(1.06784 0.0179201 0)
(0.977562 0.025251 0)
(1.03108 0.0359694 0)
(1.04055 0.0451387 0)
(1.03567 0.0536851 0)
(1.03438 0.0626922 0)
(1.03446 0.0721563 0)
(1.03426 0.0820345 0)
(1.03402 0.0924336 0)
(1.03398 0.103462 0)
(1.03425 0.1152 0)
(1.03491 0.12772 0)
(1.03613 0.141089 0)
(1.03806 0.155357 0)
(1.04091 0.17054 0)
(1.04491 0.186588 0)
(1.05037 0.203294 0)
(1.05759 0.220059 0)
(1.06585 0.235431 0)
(1.66682 0.0103756 0)
(1.06497 0.0183633 0)
(0.976294 0.0260153 0)
(1.0311 0.0356452 0)
(1.04057 0.044845 0)
(1.03597 0.0536896 0)
(1.03522 0.0627686 0)
(1.03582 0.0721981 0)
(1.03615 0.082006 0)
(1.03649 0.0922757 0)
(1.03707 0.103093 0)
(1.03799 0.114527 0)
(1.03935 0.126636 0)
(1.04129 0.139467 0)
(1.04397 0.153048 0)
(1.04758 0.167371 0)
(1.05231 0.182363 0)
(1.0584 0.197811 0)
(1.06613 0.213147 0)
(1.0749 0.226996 0)
(1.67026 0.00893746 0)
(1.0636 0.0180416 0)
(0.975295 0.0259817 0)
(1.03095 0.0352018 0)
(1.04055 0.0443731 0)
(1.03619 0.0533395 0)
(1.03586 0.0624464 0)
(1.03693 0.0718289 0)
(1.03774 0.0815391 0)
(1.0386 0.0916479 0)
(1.03974 0.102226 0)
(1.04125 0.113331 0)
(1.04323 0.125008 0)
(1.0458 0.13729 0)
(1.04912 0.150186 0)
(1.05334 0.163674 0)
(1.05863 0.177669 0)
(1.06521 0.191959 0)
(1.07327 0.206018 0)
(1.08236 0.218548 0)
(1.67362 0.00824679 0)
(1.06306 0.0176586 0)
(0.974644 0.0257039 0)
(1.03087 0.0346706 0)