/*--------------------------------*- C++ -*----------------------------------*\
  =========                 |
  \\      /  F ield         | OpenFOAM: The Open Source CFD Toolbox
   \\    /   O peration     | Website:  https://openfoam.org
    \\  /    A nd           | Version:  6
     \\/     M anipulation  |
\*---------------------------------------------------------------------------*/
FoamFile
{
    version     2.0;
    format      ascii;
    class       volScalarField;
    location    "0.5";
    object      p;
}
// * * * * * * * * * * * * * * * * * * * * * * * * * * * * * * * * * * * * * //

dimensions      [0 2 -2 0 0 0 0];

internalField   nonuniform List<scalar> 
5600
(
998.969
999.207
999.432
999.443
999.42
999.417
999.423
999.428
999.432
999.437
999.443
999.45
999.457
999.466
999.475
999.486
999.498
999.512
999.527
999.543
998.954
999.211
999.435
999.441
999.418
999.416
999.422
999.426
999.431
999.436
999.442
999.448
999.456
999.465
999.474
999.485
999.497
999.51
999.525
999.541
998.944
999.209
999.435
999.439
999.416
999.414
999.419
999.424
999.428
999.433
999.439
999.445
999.453
999.461
999.47
999.481
999.492
999.505
999.518
999.533
998.931
999.205
999.433
999.436
999.412
999.41
999.415
999.42
999.424
999.428
999.434
999.44
999.447
999.454
999.463
999.473
999.483
999.494
999.507
999.52
998.916
999.199
999.43
999.432
999.407
999.405
999.41
999.414
999.418
999.422
999.427
999.432
999.439
999.445
999.453
999.461
999.47
999.48
999.49
999.501
998.897
999.192
999.427
999.427
999.401
999.399
999.404
999.407
999.41
999.414
999.418
999.423
999.428
999.434
999.441
999.447
999.455
999.462
999.47
999.477
998.876
999.185
999.423
999.421
999.394
999.392
999.396
999.399
999.402
999.405
999.408
999.412
999.417
999.421
999.426
999.431
999.436
999.441
999.446
999.45
998.852
999.178
999.42
999.414
999.386
999.384
999.388
999.39
999.392
999.394
999.397
999.4
999.403
999.406
999.41
999.413
999.415
999.418
999.419
999.419
998.825
999.171
999.417
999.407
999.377
999.375
999.379
999.38
999.382
999.383
999.385
999.387
999.389
999.391
999.392
999.393
999.394
999.393
999.391
999.387
998.781
999.173
999.415
999.395
999.367
999.366
999.369
999.37
999.37
999.371
999.372
999.373
999.374
999.375
999.375
999.374
999.372
999.368
999.363
999.355
999.565
999.593
999.626
999.663
999.707
999.756
999.812
999.873
999.941
1000.11
999.562
999.589
999.621
999.658
999.7
999.747
999.801
999.86
999.924
1000.09
999.552
999.578
999.609
999.644
999.684
999.728
999.779
999.834
999.893
1000.05
999.535
999.559
999.588
999.621
999.657
999.698
999.744
999.794
999.847
999.999
999.512
999.533
999.56
999.589
999.622
999.658
999.698
999.741
999.787
999.928
999.483
999.501
999.524
999.55
999.579
999.609
999.642
999.677
999.715
999.841
999.45
999.464
999.484
999.506
999.529
999.553
999.579
999.605
999.633
999.743
999.413
999.423
999.441
999.458
999.475
999.493
999.51
999.527
999.545
999.635
999.374
999.38
999.394
999.407
999.419
999.43
999.439
999.448
999.454
999.523
999.333
999.338
999.348
999.356
999.362
999.366
999.367
999.364
999.358
999.404
999.299
999.306
999.31
999.311
999.308
999.299
999.283
999.259
999.234
999.268
999.261
999.265
999.263
999.258
999.247
999.23
999.203
999.168
999.132
999.146
999.221
999.22
999.213
999.201
999.184
999.159
999.125
999.083
999.04
999.032
999.179
999.173
999.161
999.143
999.12
999.088
999.047
998.999
998.949
998.922
999.136
999.125
999.108
999.086
999.057
999.019
998.972
998.918
998.864
998.82
999.092
999.077
999.056
999.029
998.996
998.953
998.902
998.844
998.787
998.727
999.049
999.031
999.006
998.976
998.938
998.892
998.838
998.778
998.718
998.646
999.009
998.987
998.96
998.926
998.886
998.838
998.782
998.721
998.66
998.576
998.971
998.947
998.917
998.882
998.84
998.791
998.735
998.674
998.613
998.519
998.937
998.911
998.88
998.844
998.801
998.752
998.696
998.635
998.574
998.471
999.294
999.256
999.216
999.176
999.136
999.095
999.056
999.019
998.985
998.954
999.282
999.245
999.208
999.171
999.133
999.096
999.061
999.027
998.995
998.967
999.266
999.232
999.197
999.164
999.13
999.096
999.064
999.033
999.004
998.978
999.253
999.22
999.188
999.157
999.126
999.096
999.067
999.038
999.012
998.987
999.241
999.21
999.181
999.152
999.124
999.096
999.069
999.043
999.019
998.996
999.23
999.201
999.174
999.148
999.122
999.096
999.072
999.048
999.025
999.004
999.22
999.194
999.168
999.144
999.12
999.097
999.074
999.052
999.031
999.011
999.211
999.187
999.163
999.141
999.119
999.097
999.075
999.055
999.036
999.017
999.203
999.18
999.159
999.138
999.117
999.097
999.077
999.058
999.04
999.022
999.196
999.175
999.155
999.135
999.116
999.097
999.079
999.061
999.044
999.027
999.189
999.17
999.151
999.133
999.115
999.097
999.08
999.063
999.047
999.031
999.184
999.165
999.148
999.131
999.114
999.098
999.081
999.066
999.05
999.035
999.178
999.161
999.145
999.129
999.113
999.098
999.082
999.068
999.053
999.039
999.174
999.158
999.142
999.127
999.113
999.098
999.083
999.069
999.056
999.042
999.169
999.154
999.14
999.126
999.112
999.098
999.084
999.071
999.058
999.045
999.165
999.151
999.138
999.124
999.111
999.098
999.085
999.072
999.06
999.048
999.162
999.148
999.136
999.123
999.111
999.098
999.086
999.074
999.062
999.051
999.158
999.146
999.134
999.122
999.11
999.098
999.086
999.075
999.064
999.053
999.155
999.144
999.132
999.121
999.109
999.098
999.087
999.076
999.065
999.055
999.152
999.141
999.13
999.12
999.109
999.098
999.088
999.077
999.067
999.057
999.15
999.139
999.129
999.119
999.108
999.098
999.088
999.078
999.068
999.058
999.147
999.137
999.128
999.118
999.108
999.098
999.088
999.079
999.069
999.06
999.145
999.136
999.126
999.117
999.107
999.098
999.089
999.079
999.07
999.061
999.143
999.134
999.125
999.116
999.107
999.098
999.089
999.08
999.071
999.063
999.141
999.133
999.124
999.115
999.107
999.098
999.089
999.081
999.072
999.064
999.139
999.131
999.123
999.114
999.106
999.098
999.089
999.081
999.073
999.065
999.138
999.13
999.122
999.114
999.106
999.098
999.09
999.082
999.074
999.066
999.136
999.129
999.121
999.113
999.105
999.098
999.09
999.082
999.074
999.067
999.135
999.127
999.12
999.113
999.105
999.097
999.09
999.082
999.075
999.067
999.133
999.126
999.119
999.112
999.105
999.097
999.09
999.083
999.075
999.068
999.132
999.125
999.118
999.111
999.104
999.097
999.09
999.083
999.076
999.069
999.131
999.124
999.118
999.111
999.104
999.097
999.09
999.083
999.076
999.069
999.13
999.123
999.117
999.11
999.104
999.097
999.09
999.083
999.077
999.07
999.129
999.123
999.116
999.11
999.103
999.097
999.09
999.084
999.077
999.071
999.128
999.122
999.116
999.109
999.103
999.097
999.09
999.084
999.077
999.071
999.127
999.121
999.115
999.109
999.103
999.097
999.09
999.084
999.078
999.071
999.126
999.121
999.115
999.109
999.103
999.096
999.09
999.084
999.078
999.072
999.126
999.12
999.114
999.108
999.102
999.096
999.09
999.084
999.078
999.072
999.125
999.119
999.114
999.108
999.102
999.096
999.09
999.084
999.078
999.072
999.124
999.119
999.113
999.108
999.102
999.096
999.09
999.084
999.079
999.073
999.124
999.118
999.113
999.107
999.102
999.096
999.09
999.084
999.079
999.073
999.123
999.118
999.113
999.107
999.102
999.096
999.09
999.085
999.079
999.073
999.123
999.118
999.112
999.107
999.101
999.096
999.09
999.085
999.079
999.073
999.122
999.117
999.112
999.107
999.101
999.096
999.09
999.085
999.079
999.073
999.122
999.117
999.112
999.107
999.101
999.096
999.09
999.085
999.079
999.074
999.122
999.117
999.112
999.106
999.101
999.096
999.09
999.085
999.079
999.074
999.122
999.117
999.112
999.106
999.101
999.096
999.09
999.085
999.079
999.074
999.121
999.116
999.111
999.106
999.101
999.096
999.09
999.085
999.079
999.074
999.121
999.116
999.111
999.106
999.101
999.095
999.09
999.085
999.079
999.074
999.121
999.116
999.111
999.106
999.101
999.095
999.09
999.085
999.079
999.074
998.701
999.202
999.419
999.379
999.355
999.356
999.358
999.358
999.357
999.357
999.357
999.356
999.355
999.353
999.351
999.347
999.342
999.335
999.325
999.308
998.661
999.208
999.416
999.368
999.346
999.349
999.35
999.349
999.348
999.348
999.347
999.345
999.343
999.341
999.337
999.333
999.326
999.318
999.307
999.291
998.638
999.202
999.409
999.359
999.339
999.342
999.342
999.341
999.34
999.339
999.337
999.335
999.333
999.329
999.325
999.32
999.313
999.304
999.293
999.279
998.619
999.193
999.402
999.352
999.331
999.334
999.335
999.333
999.331
999.33
999.328
999.325
999.322
999.318
999.313
999.308
999.3
999.291
999.28
999.266
998.603
999.185
999.396
999.344
999.323
999.326
999.327
999.325
999.323
999.321
999.318
999.315
999.312
999.307
999.302
999.296
999.288
999.279
999.268
999.254
998.587
999.177
999.39
999.337
999.316
999.319
999.319
999.317
999.314
999.312
999.309
999.306
999.302
999.297
999.292
999.285
999.277
999.268
999.257
999.244
998.571
999.168
999.383
999.33
999.308
999.311
999.311
999.309
999.306
999.304
999.301
999.297
999.293
999.288
999.282
999.275
999.267
999.258
999.247
999.234
998.556
999.16
999.377
999.323
999.301
999.304
999.304
999.301
999.298
999.296
999.292
999.288
999.284
999.279
999.273
999.265
999.257
999.248
999.238
999.225
998.542
999.151
999.371
999.316
999.294
999.296
999.296
999.294
999.291
999.288
999.284
999.28
999.275
999.27
999.264
999.257
999.249
999.239
999.229
999.217
998.527
999.143
999.365
999.309
999.287
999.289
999.289
999.286
999.283
999.28
999.276
999.272
999.267
999.262
999.256
999.248
999.24
999.231
999.221
999.21
998.513
999.135
999.359
999.303
999.28
999.283
999.282
999.279
999.276
999.273
999.269
999.265
999.26
999.254
999.248
999.241
999.233
999.224
999.214
999.203
998.499
999.127
999.353
999.296
999.273
999.276
999.276
999.273
999.269
999.266
999.262
999.258
999.253
999.247
999.241
999.234
999.226
999.217
999.208
999.197
998.486
999.12
999.347
999.29
999.267
999.27
999.269
999.266
999.263
999.259
999.255
999.251
999.246
999.24
999.234
999.227
999.219
999.211
999.202
999.191
998.473
999.112
999.342
999.284
999.261
999.263
999.263
999.26
999.256
999.253
999.249
999.244
999.239
999.234
999.227
999.221
999.213
999.205
999.196
999.186
998.46
999.105
999.337
999.278
999.255
999.257
999.257
999.254
999.25
999.247
999.243
999.238
999.233
999.228
999.221
999.215
999.207
999.199
999.191
999.182
998.448
999.098
999.332
999.273
999.249
999.252
999.251
999.248
999.244
999.241
999.237
999.232
999.227
999.222
999.216
999.209
999.202
999.194
999.186
999.177
998.436
999.092
999.327
999.267
999.243
999.246
999.246
999.242
999.239
999.235
999.231
999.227
999.222
999.216
999.211
999.204
999.197
999.19
999.182
999.173
998.425
999.085
999.322
999.262
999.238
999.241
999.24
999.237
999.233
999.23
999.226
999.222
999.217
999.211
999.206
999.199
999.193
999.185
999.178
999.169
998.414
999.079
999.317
999.257
999.233
999.236
999.235
999.232
999.228
999.225
999.221
999.217
999.212
999.207
999.201
999.195
999.188
999.181
999.174
999.166
998.403
999.073
999.313
999.252
999.228
999.231
999.23
999.227
999.224
999.22
999.216
999.212
999.207
999.202
999.197
999.191
999.184
999.177
999.17
999.163
998.393
999.067
999.309
999.248
999.223
999.226
999.226
999.222
999.219
999.216
999.212
999.207
999.203
999.198
999.192
999.187
999.181
999.174
999.167
999.16
998.384
999.062
999.305
999.243
999.218
999.221
999.221
999.218
999.215
999.211
999.207
999.203
999.199
999.194
999.189
999.183
999.177
999.171
999.164
999.157
998.374
999.057
999.301
999.239
999.214
999.217
999.217
999.214
999.21
999.207
999.203
999.199
999.195
999.19
999.185
999.18
999.174
999.168
999.161
999.154
998.366
999.052
999.297
999.235
999.21
999.213
999.213
999.21
999.206
999.203
999.2
999.196
999.191
999.187
999.182
999.176
999.171
999.165
999.158
999.152
998.357
999.047
999.294
999.231
999.206
999.209
999.209
999.206
999.203
999.199
999.196
999.192
999.188
999.183
999.178
999.173
999.168
999.162
999.156
999.15
998.349
999.042
999.29
999.228
999.202
999.206
999.205
999.202
999.199
999.196
999.192
999.189
999.184
999.18
999.175
999.17
999.165
999.159
999.154
999.147
998.341
999.038
999.287
999.224
999.199
999.202
999.202
999.199
999.196
999.193
999.189
999.185
999.181
999.177
999.173
999.168
999.162
999.157
999.151
999.145
998.334
999.034
999.284
999.221
999.195
999.199
999.199
999.196
999.193
999.19
999.186
999.182
999.179
999.174
999.17
999.165
999.16
999.155
999.149
999.144
998.327
999.03
999.281
999.218
999.192
999.196
999.196
999.193
999.19
999.187
999.183
999.18
999.176
999.172
999.167
999.163
999.158
999.153
999.147
999.142
998.321
999.026
999.279
999.215
999.189
999.193
999.193
999.19
999.187
999.184
999.181
999.177
999.173
999.169
999.165
999.161
999.156
999.151
999.146
999.14
998.315
999.023
999.276
999.212
999.186
999.19
999.19
999.187
999.184
999.181
999.178
999.175
999.171
999.167
999.163
999.158
999.154
999.149
999.144
999.139
998.309
999.02
999.274
999.21
999.184
999.187
999.187
999.185
999.182
999.179
999.176
999.172
999.169
999.165
999.161
999.157
999.152
999.147
999.142
999.137
998.304
999.017
999.271
999.207
999.181
999.185
999.185
999.182
999.179
999.177
999.173
999.17
999.167
999.163
999.159
999.155
999.15
999.146
999.141
999.136
998.299
999.014
999.269
999.205
999.179
999.183
999.183
999.18
999.177
999.174
999.171
999.168
999.165
999.161
999.157
999.153
999.149
999.144
999.14
999.135
998.294
999.011
999.267
999.203
999.177
999.18
999.181
999.178
999.175
999.172
999.169
999.166
999.163
999.159
999.155
999.151
999.147
999.143
999.138
999.134
998.29
999.009
999.266
999.201
999.175
999.178
999.179
999.176
999.173
999.171
999.168
999.165
999.161
999.158
999.154
999.15
999.146
999.142
999.137
999.133
998.286
999.006
999.264
999.199
999.173
999.177
999.177
999.174
999.172
999.169
999.166
999.163
999.16
999.156
999.153
999.149
999.145
999.14
999.136
999.132
998.282
999.004
999.262
999.197
999.171
999.175
999.175
999.173
999.17
999.167
999.165
999.162
999.158
999.155
999.151
999.147
999.144
999.139
999.135
999.131
998.278
999.002
999.261
999.196
999.17
999.173
999.174
999.171
999.168
999.166
999.163
999.16
999.157
999.154
999.15
999.146
999.143
999.138
999.134
999.13
998.275
999.001
999.26
999.194
999.168
999.172
999.172
999.17
999.167
999.165
999.162
999.159
999.156
999.153
999.149
999.145
999.142
999.138
999.133
999.129
998.272
998.999
999.258
999.193
999.167
999.171
999.171
999.168
999.166
999.163
999.161
999.158
999.155
999.151
999.148
999.144
999.141
999.137
999.133
999.129
998.27
998.998
999.257
999.192
999.166
999.17
999.17
999.167
999.165
999.162
999.16
999.157
999.154
999.151
999.147
999.144
999.14
999.136
999.132
999.128
998.268
998.996
999.256
999.191
999.165
999.169
999.169
999.166
999.164
999.161
999.159
999.156
999.153
999.15
999.146
999.143
999.139
999.135
999.132
999.127
998.266
998.995
999.256
999.19
999.164
999.168
999.168
999.166
999.163
999.161
999.158
999.155
999.152
999.149
999.146
999.142
999.139
999.135
999.131
999.127
998.264
998.994
999.255
999.189
999.163
999.167
999.167
999.165
999.162
999.16
999.157
999.155
999.152
999.149
999.145
999.142
999.138
999.134
999.131
999.127
998.263
998.993
999.254
999.189
999.162
999.166
999.167
999.164
999.162
999.159
999.157
999.154
999.151
999.148
999.145
999.141
999.138
999.134
999.13
999.126
998.263
998.992
999.254
999.189
999.162
999.166
999.166
999.164
999.161
999.159
999.156
999.154
999.151
999.148
999.144
999.141
999.137
999.134
999.13
999.126
998.263
998.991
999.254
999.189
999.162
999.165
999.166
999.164
999.161
999.159
999.156
999.153
999.15
999.147
999.144
999.141
999.137
999.134
999.13
999.126
998.269
998.987
999.253
999.189
999.162
999.165
999.166
999.163
999.161
999.158
999.156
999.153
999.15
999.147
999.144
999.141
999.137
999.133
999.13
999.126
998.293
998.971
999.25
999.192
999.162
999.165
999.166
999.163
999.161
999.158
999.156
999.153
999.15
999.147
999.144
999.14
999.137
999.133
999.13
999.126
998.793
998.759
998.729
998.701
998.672
998.641
998.607
998.571
998.536
998.47
998.798
998.764
998.732
998.705
998.677
998.647
998.615
998.581
998.547
998.488
998.793
998.764
998.735
998.71
998.683
998.655
998.625
998.593
998.561
998.51
998.787
998.762
998.736
998.712
998.688
998.661
998.633
998.604
998.575
998.532
998.783
998.761
998.737
998.715
998.692
998.667
998.641
998.614
998.588
998.553
998.779
998.76
998.738
998.718
998.696
998.672
998.648
998.623
998.6
998.573
998.776
998.76
998.74
998.72
998.699
998.677
998.654
998.631
998.61
998.59
998.775
998.759
998.742
998.723
998.703
998.681
998.659
998.638
998.618
998.604
998.775
998.76
998.743
998.725
998.706
998.685
998.663
998.642
998.624
998.613
998.775
998.761
998.745
998.727
998.707
998.686
998.665
998.644
998.627
998.617
998.785
998.794
998.804
998.813
998.823
998.832
998.841
998.85
998.858
998.867
998.875
998.884
998.892
998.9
998.907
998.915
998.922
998.93
998.937
998.943
998.95
998.957
998.963
998.969
998.975
998.981
998.987
998.992
998.998
999.003
999.008
999.013
999.019
999.023
999.028
999.033
999.038
999.043
999.048
999.053
999.058
999.063
999.069
999.074
999.08
999.086
999.092
999.099
999.107
999.114
998.782
998.791
998.801
998.81
998.82
998.829
998.838
998.847
998.856
998.865
998.873
998.882
998.89
998.898
998.906
998.913
998.921
998.928
998.935
998.942
998.949
998.955
998.961
998.968
998.974
998.98
998.985
998.991
998.996
999.002
999.007
999.012
999.017
999.022
999.027
999.032
999.037
999.042
999.047
999.052
999.057
999.062
999.067
999.073
999.079
999.085
999.091
999.098
999.105
999.112
998.777
998.785
998.796
998.806
998.816
998.826
998.835
998.844
998.853
998.862
998.871
998.879
998.887
998.895
998.903
998.911
998.918
998.926
998.933
998.94
998.946
998.953
998.959
998.966
998.972
998.978
998.983
998.989
998.995
999
999.005
999.01
999.016
999.021
999.025
999.03
999.035
999.04
999.045
999.05
999.055
999.06
999.065
999.071
999.076
999.082
999.088
999.095
999.102
999.109
998.771
998.779
998.791
998.802
998.812
998.822
998.831
998.841
998.85
998.859
998.868
998.876
998.884
998.892
998.9
998.908
998.915
998.923
998.93
998.937
998.944
998.95
998.957
998.963
998.969
998.975
998.981
998.986
998.992
998.997
999.003
999.008
999.013
999.018
999.023
999.028
999.033
999.038
999.043
999.047
999.052
999.057
999.062
999.068
999.073
999.079
999.084
999.09
999.097
999.104
998.765
998.772
998.786
998.798
998.808
998.818
998.828
998.837
998.847
998.856
998.864
998.873
998.881
998.889
998.897
998.905
998.912
998.92
998.927
998.934
998.941
998.947
998.954
998.96
998.966
998.972
998.978
998.983
998.989
998.994
999
999.005
999.01
999.015
999.02
999.025
999.03
999.035
999.039
999.044
999.049
999.054
999.059
999.064
999.069
999.074
999.079
999.085
999.092
999.097
998.759
998.765
998.781
998.793
998.804
998.814
998.824
998.834
998.843
998.852
998.861
998.87
998.878
998.886
998.894
998.902
998.909
998.917
998.924
998.931
998.937
998.944
998.95
998.957
998.963
998.969
998.975
998.98
998.986
998.991
998.996
999.002
999.007
999.012
999.017
999.021
999.026
999.031
999.036
999.04
999.045
999.049
999.054
999.059
999.064
999.069
999.074
999.079
999.084
999.09
998.754
998.76
998.776
998.79
998.801
998.811
998.821
998.831
998.841
998.85
998.859
998.867
998.875
998.884
998.891
998.899
998.906
998.914
998.921
998.928
998.934
998.941
998.947
998.953
998.959
998.965
998.971
998.977
998.982
998.988
998.993
998.998
999.003
999.008
999.013
999.017
999.022
999.027
999.031
999.036
999.04
999.045
999.049
999.053
999.058
999.062
999.067
999.071
999.076
999.081
998.751
998.756
998.774
998.788
998.799
998.809
998.82
998.83
998.839
998.848
998.857
998.865
998.873
998.881
998.889
998.896
998.904
998.911
998.918
998.925
998.931
998.938
998.944
998.95
998.956
998.962
998.968
998.973
998.979
998.984
998.989
998.994
998.999
999.004
999.008
999.013
999.018
999.022
999.026
999.031
999.035
999.039
999.043
999.047
999.051
999.055
999.059
999.063
999.068
999.071
998.749
998.755
998.774
998.788
998.799
998.81
998.82
998.829
998.838
998.847
998.856
998.864
998.872
998.88
998.887
998.894
998.902
998.909
998.915
998.922
998.928
998.935
998.941
998.947
998.953
998.959
998.964
998.97
998.975
998.98
998.985
998.99
998.995
998.999
999.004
999.009
999.013
999.017
999.021
999.025
999.029
999.033
999.037
999.041
999.044
999.048
999.051
999.055
999.058
999.061
998.75
998.761
998.78
998.793
998.804
998.814
998.823
998.832
998.841
998.849
998.857
998.865
998.872
998.88
998.887
998.894
998.901
998.907
998.914
998.92
998.927
998.933
998.939
998.944
998.95
998.956
998.961
998.966
998.971
998.976
998.981
998.986
998.991
998.995
999
999.004
999.008
999.012
999.016
999.02
999.023
999.027
999.03
999.034
999.037
999.04
999.043
999.046
999.049
999.051
998.8
998.795
998.796
998.802
998.81
998.818
998.826
998.835
998.843
998.85
998.858
998.865
998.873
998.88
998.887
998.893
998.9
998.907
998.913
998.919
998.925
998.931
998.937
998.943
998.948
998.954
998.959
998.964
998.969
998.974
998.979
998.983
998.988
998.992
998.997
999.001
999.005
999.008
999.012
999.016
999.019
999.022
999.026
999.028
999.031
999.034
999.036
999.038
999.041
999.042
998.813
998.811
998.809
998.814
998.82
998.827
998.834
998.841
998.848
998.855
998.862
998.869
998.876
998.882
998.889
998.895
998.902
998.908
998.914
998.92
998.926
998.931
998.937
998.942
998.948
998.953
998.958
998.963
998.968
998.973
998.977
998.982
998.986
998.99
998.994
998.998
999.002
999.005
999.009
999.012
999.015
999.018
999.021
999.024
999.026
999.028
999.03
999.032
999.034
999.035
998.821
998.822
998.821
998.825
998.83
998.836
998.842
998.848
998.854
998.861
998.867
998.873
998.88
998.886
998.892
998.898
998.904
998.91
998.916
998.921
998.927
998.932
998.937
998.943
998.948
998.953
998.957
998.962
998.967
998.971
998.975
998.98
998.984
998.988
998.992
998.995
998.999
999.002
999.005
999.008
999.011
999.014
999.016
999.019
999.021
999.023
999.024
999.026
999.027
999.028
998.83
998.832
998.832
998.835
998.839
998.844
998.849
998.855
998.861
998.866
998.872
998.878
998.884
998.889
998.895
998.901
998.906
998.912
998.917
998.922
998.928
998.933
998.938
998.943
998.947
998.952
998.957
998.961
998.966
998.97
998.974
998.978
998.982
998.985
998.989
998.992
998.996
998.999
999.002
999.005
999.007
999.01
999.012
999.014
999.016
999.017
999.018
999.019
999.02
999.02
998.84
998.842
998.842
998.845
998.849
998.853
998.857
998.862
998.867
998.872
998.877
998.883
998.888
998.893
998.898
998.904
998.909
998.914
998.919
998.924
998.929
998.934
998.938
998.943
998.948
998.952
998.956
998.96
998.965
998.969
998.972
998.976
998.98
998.983
998.987
998.99
998.993
998.996
998.998
999.001
999.003
999.005
999.007
999.009
999.01
999.012
999.012
999.013
999.013
999.013
998.849
998.851
998.852
998.855
998.858
998.861
998.865
998.869
998.874
998.878
998.883
998.888
998.892
998.897
998.902
998.907
998.912
998.916
998.921
998.926
998.93
998.935
998.939
998.943
998.948
998.952
998.956
998.96
998.964
998.967
998.971
998.975
998.978
998.981
998.984
998.987
998.99
998.993
998.995
998.997
998.999
999.001
999.003
999.004
999.005
999.006
999.007
999.007
999.007
999.006
998.86
998.861
998.862
998.864
998.867
998.869
998.873
998.876
998.88
998.884
998.888
998.893
998.897
998.901
998.906
998.91
998.914
998.919
998.923
998.927
998.932
998.936
998.94
998.944
998.948
998.952
998.956
998.959
998.963
998.966
998.97
998.973
998.976
998.979
998.982
998.985
998.987
998.989
998.992
998.994
998.995
998.997
998.998
998.999
999
999.001
999.001
999.001
999
998.999
998.87
998.87
998.871
998.873
998.875
998.878
998.88
998.883
998.887
998.89
998.894
998.898
998.901
998.905
998.909
998.913
998.917
998.921
998.925
998.929
998.933
998.937
998.941
998.945
998.948
998.952
998.955
998.959
998.962
998.965
998.968
998.971
998.974
998.977
998.98
998.982
998.984
998.986
998.988
998.99
998.992
998.993
998.994
998.995
998.995
998.996
998.995
998.995
998.994
998.993
998.88
998.88
998.881
998.882
998.884
998.886
998.888
998.89
998.893
998.896
998.899
998.903
998.906
998.91
998.913
998.917
998.92
998.924
998.928
998.931
998.935
998.938
998.942
998.945
998.949
998.952
998.955
998.958
998.961
998.964
998.967
998.97
998.973
998.975
998.977
998.98
998.982
998.983
998.985
998.987
998.988
998.989
998.99
998.99
998.99
998.99
998.99
998.989
998.988
998.987
998.889
998.889
998.89
998.891
998.892
998.893
998.895
998.897
998.9
998.902
998.905
998.908
998.911
998.914
998.917
998.92
998.923
998.927
998.93
998.933
998.937
998.94
998.943
998.946
998.949
998.952
998.955
998.958
998.961
998.964
998.966
998.969
998.971
998.973
998.975
998.977
998.979
998.981
998.982
998.983
998.984
998.985
998.986
998.986
998.986
998.986
998.985
998.984
998.982
998.981
998.899
998.898
998.898
998.899
998.9
998.901
998.902
998.904
998.906
998.908
998.91
998.913
998.915
998.918
998.921
998.924
998.927
998.929
998.932
998.935
998.938
998.941
998.944
998.947
998.95
998.953
998.955
998.958
998.96
998.963
998.965
998.967
998.969
998.971
998.973
998.975
998.977
998.978
998.979
998.98
998.981
998.981
998.982
998.982
998.981
998.981
998.98
998.979
998.977
998.975
998.908
998.907
998.907
998.907
998.907
998.908
998.909
998.91
998.912
998.914
998.915
998.918
998.92
998.922
998.924
998.927
998.93
998.932
998.935
998.937
998.94
998.943
998.945
998.948
998.95
998.953
998.955
998.958
998.96
998.962
998.964
998.966
998.968
998.97
998.971
998.973
998.974
998.975
998.976
998.977
998.977
998.978
998.978
998.978
998.977
998.976
998.975
998.974
998.972
998.97
998.917
998.915
998.915
998.915
998.915
998.915
998.916
998.916
998.918
998.919
998.921
998.922
998.924
998.926
998.928
998.93
998.933
998.935
998.937
998.939
998.942
998.944
998.946
998.949
998.951
998.953
998.955
998.957
998.959
998.961
998.963
998.965
998.967
998.968
998.969
998.971
998.972
998.973
998.973
998.974
998.974
998.974
998.974
998.974
998.973
998.972
998.971
998.969
998.967
998.965
998.925
998.923
998.922
998.922
998.921
998.921
998.922
998.922
998.923
998.924
998.925
998.927
998.928
998.93
998.932
998.933
998.935
998.937
998.939
998.941
998.943
998.946
998.948
998.95
998.952
998.954
998.955
998.957
998.959
998.961
998.962
998.964
998.965
998.967
998.968
998.969
998.97
998.97
998.971
998.971
998.971
998.971
998.971
998.97
998.969
998.968
998.967
998.965
998.963
998.96
998.933
998.93
998.929
998.929
998.928
998.928
998.928
998.928
998.928
998.929
998.93
998.931
998.932
998.934
998.935
998.937
998.938
998.94
998.942
998.943
998.945
998.947
998.949
998.95
998.952
998.954
998.956
998.957
998.959
998.96
998.962
998.963
998.964
998.965
998.966
998.967
998.967
998.968
998.968
998.968
998.968
998.968
998.968
998.967
998.966
998.965
998.963
998.961
998.959
998.956
998.94
998.937
998.936
998.935
998.934
998.934
998.933
998.933
998.934
998.934
998.935
998.935
998.936
998.937
998.938
998.94
998.941
998.942
998.944
998.945
998.947
998.948
998.95
998.951
998.953
998.954
998.956
998.957
998.958
998.96
998.961
998.962
998.963
998.964
998.964
998.965
998.966
998.966
998.966
998.966
998.966
998.965
998.965
998.964
998.962
998.961
998.959
998.957
998.955
998.952
998.947
998.944
998.943
998.941
998.94
998.939
998.939
998.938
998.938
998.938
998.939
998.939
998.94
998.941
998.942
998.942
998.944
998.945
998.946
998.947
998.948
998.95
998.951
998.952
998.953
998.955
998.956
998.957
998.958
998.959
998.96
998.961
998.962
998.962
998.963
998.963
998.964
998.964
998.964
998.964
998.963
998.963
998.962
998.961
998.959
998.958
998.956
998.954
998.951
998.948
998.953
998.95
998.948
998.947
998.946
998.945
998.944
998.943
998.943
998.943
998.943
998.943
998.943
998.944
998.945
998.945
998.946
998.947
998.948
998.949
998.95
998.951
998.952
998.953
998.954
998.955
998.956
998.957
998.958
998.959
998.959
998.96
998.961
998.961
998.962
998.962
998.962
998.962
998.962
998.961
998.961
998.96
998.959
998.958
998.957
998.955
998.953
998.951
998.948
998.945
998.959
998.956
998.954
998.952
998.951
998.949
998.948
998.948
998.947
998.947
998.947
998.947
998.947
998.947
998.947
998.948
998.948
998.949
998.95
998.951
998.951
998.952
998.953
998.954
998.955
998.956
998.956
998.957
998.958
998.958
998.959
998.959
998.96
998.96
998.96
998.96
998.96
998.96
998.96
998.959
998.959
998.958
998.957
998.955
998.954
998.952
998.95
998.948
998.945
998.942
998.964
998.961
998.959
998.957
998.956
998.954
998.953
998.952
998.951
998.951
998.95
998.95
998.95
998.95
998.95
998.95
998.951
998.951
998.952
998.952
998.953
998.953
998.954
998.955
998.955
998.956
998.956
998.957
998.958
998.958
998.958
998.959
998.959
998.959
998.959
998.959
998.959
998.958
998.958
998.957
998.957
998.956
998.954
998.953
998.951
998.95
998.948
998.945
998.943
998.94
998.969
998.966
998.964
998.962
998.96
998.958
998.957
998.956
998.955
998.954
998.954
998.953
998.953
998.953
998.953
998.953
998.953
998.953
998.953
998.954
998.954
998.955
998.955
998.955
998.956
998.956
998.957
998.957
998.957
998.958
998.958
998.958
998.958
998.958
998.958
998.958
998.957
998.957
998.956
998.956
998.955
998.954
998.952
998.951
998.949
998.947
998.945
998.943
998.94
998.937
998.974
998.97
998.968
998.966
998.964
998.962
998.961
998.96
998.959
998.958
998.957
998.956
998.956
998.955
998.955
998.955
998.955
998.955
998.955
998.955
998.955
998.956
998.956
998.956
998.956
998.957
998.957
998.957
998.957
998.957
998.957
998.957
998.957
998.957
998.957
998.957
998.956
998.955
998.955
998.954
998.953
998.952
998.95
998.949
998.947
998.945
998.943
998.941
998.938
998.935
998.978
998.975
998.972
998.97
998.968
998.966
998.965
998.963
998.962
998.961
998.96
998.959
998.958
998.958
998.957
998.957
998.957
998.957
998.957
998.957
998.957
998.957
998.957
998.957
998.957
998.957
998.957
998.957
998.957
998.957
998.957
998.957
998.957
998.956
998.956
998.955
998.955
998.954
998.953
998.952
998.951
998.95
998.949
998.947
998.945
998.943
998.941
998.939
998.936
998.933
998.982
998.979
998.976
998.974
998.972
998.97
998.968
998.966
998.965
998.964
998.963
998.962
998.961
998.96
998.96
998.959
998.959
998.958
998.958
998.958
998.958
998.958
998.958
998.958
998.958
998.957
998.957
998.957
998.957
998.957
998.957
998.956
998.956
998.956
998.955
998.954
998.954
998.953
998.952
998.951
998.95
998.948
998.947
998.945
998.944
998.942
998.939
998.937
998.934
998.932
998.986
998.982
998.98
998.977
998.975
998.973
998.971
998.969
998.968
998.967
998.965
998.964
998.963