/*--------------------------------*- C++ -*----------------------------------*\
  =========                 |
  \\      /  F ield         | OpenFOAM: The Open Source CFD Toolbox
   \\    /   O peration     | Website:  https://openfoam.org
    \\  /    A nd           | Version:  6
     \\/     M anipulation  |
\*---------------------------------------------------------------------------*/
FoamFile
{
    version     2.0;
    format      ascii;
    class       volVectorField;
    location    "0.5";
    object      U;
}
// * * * * * * * * * * * * * * * * * * * * * * * * * * * * * * * * * * * * * //

dimensions      [0 1 -1 0 0 0 0];

internalField   nonuniform List<vector> 
5600
(
(1.21125 0.00148598 3.75262e-19)
(1.05483 0.00204977 -6.44237e-18)
(0.99301 0.00231992 6.42771e-18)
(0.998699 0.00242711 0)
(1.00379 0.00270238 0)
(1.00032 0.00318053 0)
(0.994954 0.00373102 -1.19905e-17)
(0.98964 0.0043118 1.19633e-17)
(0.983854 0.00494415 0)
(0.977217 0.00564653 0)
(0.969653 0.00642794 0)
(0.961103 0.00729843 0)
(0.951465 0.00827189 0)
(0.94061 0.00936486 -2.3606e-17)
(0.92839 0.0105954 2.35531e-17)
(0.91464 0.0119813 -4.7002e-17)
(0.899174 0.0135356 4.68972e-17)
(0.881799 0.0152546 0)
(0.862322 0.0170965 -3.64769e-19)
(0.840602 0.0189248 0)
(1.21427 0.00296232 -3.70031e-19)
(1.05345 0.00499797 6.35318e-18)
(0.992775 0.00618062 -6.34107e-18)
(0.999375 0.00702593 0)
(1.00429 0.00808703 0)
(1.00064 0.00946321 2.44794e-17)
(0.995281 0.0110118 1.18825e-22)
(0.990029 0.0126865 -7.38871e-19)
(0.984305 0.0145212 1.10572e-22)
(0.977742 0.0165517 -2.35576e-17)
(0.970276 0.0188056 0)
(0.961853 0.0213145 -4.76709e-17)
(0.952371 0.0241182 4.68487e-17)
(0.94171 0.0272633 0)
(0.929731 0.0308007 0)
(0.916279 0.0347802 0)
(0.901179 0.0392363 0)
(0.884245 0.044156 -4.64118e-17)
(0.865288 0.0494175 4.66865e-17)
(0.844073 0.0546717 4.55466e-17)
(1.21836 0.00362242 0)
(1.05328 0.00797475 0)
(0.992337 0.0103 0)
(0.999708 0.0116428 0)
(1.0048 0.0133876 2.34579e-17)
(1.00116 0.0156653 -2.41552e-17)
(0.995908 0.0182085 -1.46179e-18)
(0.990811 0.0209577 -7.29815e-19)
(0.985257 0.0239742 2.33199e-17)
(0.978892 0.0273134 -2.18301e-17)
(0.971665 0.0310185 -1.4532e-18)
(0.963532 0.035141 4.716e-17)
(0.954404 0.0397451 -4.78149e-17)
(0.944174 0.0449055 1.44682e-18)
(0.932721 0.0507035 4.62308e-17)
(0.919908 0.0572182 -9.37686e-17)
(0.905579 0.0645038 -1.44104e-18)
(0.889564 0.0725386 4.60282e-17)
(0.871669 0.0811254 -1.43629e-18)
(0.851581 0.0897206 -7.17475e-19)
(1.22361 0.00464563 0)
(1.05358 0.0106729 -1.44705e-18)
(0.991795 0.0139756 0)
(0.999936 0.0159423 0)
(1.00539 0.0184341 0)
(1.00189 0.0216175 0)
(0.99684 0.0251468 1.44029e-18)
(0.992005 0.0289555 2.44609e-17)
(0.986745 0.0331297 -2.29994e-17)
(0.980715 0.0377433 -1.43606e-18)
(0.973884 0.0428549 2.86931e-18)
(0.966224 0.0485339 0)
(0.957664 0.054867 -4.43876e-17)
(0.948119 0.0619541 4.43438e-17)
(0.937495 0.0699041 4.57299e-17)
(0.925684 0.0788221 -4.56848e-17)
(0.912559 0.0887813 9.27076e-17)
(0.897972 0.0997545 -9.11912e-17)
(0.881743 0.11148 1.42349e-18)
(0.863508 0.12325 1.42268e-18)
(1.22995 0.0057208 -5.61907e-18)
(1.05402 0.0131505 7.09504e-18)
(0.991178 0.0172903 -1.13513e-17)
(1.00021 0.0198825 -1.13464e-17)
(1.00612 0.0231269 2.26835e-17)
(1.00285 0.0272001 2.26738e-17)
(0.998091 0.0316912 -2.26643e-17)
(0.993619 0.0365285 1.41593e-18)
(0.988767 0.0418177 1.41534e-18)
(0.983203 0.047648 4.52721e-17)
(0.976918 0.0540905 -9.0506e-17)
(0.969907 0.0612305 1.41329e-18)
(0.962123 0.0691733 4.66277e-17)
(0.953509 0.0780403 1.41236e-18)
(0.944007 0.0879629 -4.3765e-17)
(0.933546 0.0990677 4.79795e-17)
(0.92204 0.111443 1.41055e-18)
(0.909372 0.125058 0)
(0.895398 0.139593 1.40934e-18)
(0.879731 0.154198 1.40914e-18)
(1.23731 0.00676513 5.49862e-18)
(1.0545 0.0154155 -5.55549e-18)
(0.990493 0.0202461 1.3897e-18)
(1.0006 0.0234048 0)
(1.00706 0.027383 2.22439e-17)
(1.00407 0.0323256 -2.22485e-17)
(0.999676 0.0377477 1.39081e-18)
(0.995652 0.0435709 -4.72976e-17)
(0.991304 0.049917 -2.78292e-18)
(0.986317 0.0568865 8.90668e-17)
(0.980709 0.0645599 -4.73261e-17)
(0.974503 0.0730347 -1.39223e-18)
(0.967679 0.082431 -4.73451e-17)
(0.960217 0.0928863 -4.59618e-17)
(0.952096 0.104548 8.77612e-17)
(0.943296 0.117558 8.63854e-17)
(0.933774 0.132015 -9.05819e-17)
(0.923457 0.147882 8.78119e-17)
(0.912248 0.164789 -1.79838e-16)
(0.899769 0.181769 8.78583e-17)
(1.24559 0.00781205 0)
(1.0549 0.0174151 0)
(0.989719 0.0227316 -1.3587e-18)
(1.00117 0.0264142 2.1758e-17)
(1.00827 0.031133 -2.17773e-17)
(1.00558 0.0369332 -1.36226e-18)
(1.00159 0.0432513 -1.36347e-18)
(0.998079 0.0500064 1.36468e-18)
(0.994306 0.0573344 1.36588e-18)
(0.989983 0.0653439 0)
(0.98516 0.0741222 4.51533e-17)
(0.979887 0.0837759 1.81004e-22)
(0.974178 0.094435 -4.2491e-17)
(0.968049 0.106247 -8.64288e-17)
(0.961524 0.119368 1.75754e-16)
(0.954635 0.133948 -8.65793e-17)
(0.947391 0.150089 8.80307e-17)
(0.939766 0.167751 -8.673e-17)
(0.931722 0.186525 -8.81835e-17)
(0.92291 0.205356 8.68847e-17)
(1.25469 0.00912252 0)
(1.05491 0.0189892 1.3238e-18)
(0.988795 0.0244977 -2.12201e-17)
(1.00199 0.0288238 2.25826e-17)
(1.00978 0.034359 -2.12877e-17)
(1.00737 0.0410018 2.39873e-17)
(1.0038 0.048169 0)
(1.00084 0.0557864 1.33692e-18)
(0.997687 0.0639992 0)
(0.994092 0.0729231 -1.34123e-18)
(0.990136 0.0826513 4.2989e-17)
(0.985898 0.0932959 -4.30583e-17)
(0.981422 0.104992 -8.62558e-17)
(0.976762 0.11789 8.50448e-17)
(0.971991 0.132147 0)
(0.967192 0.147912 0)
(0.962433 0.165286 8.68139e-17)
(0.957738 0.184233 1.57805e-22)
(0.953137 0.204323 -8.70938e-17)
(0.948327 0.224485 8.85916e-17)
(1.26449 0.0119319 -4.46184e-18)
(1.05367 0.0193908 4.51187e-18)
(0.987735 0.0247954 0)
(1.00329 0.0305937 -1.94369e-18)
(1.0116 0.0372031 -2.07813e-17)
(1.00933 0.0446337 -2.21327e-17)
(1.0062 0.0525863 8.35219e-17)
(1.00381 0.0610007 -4.31689e-17)
(1.00132 0.0700038 -4.19609e-17)
(0.998502 0.0797193 4.33758e-17)
(0.995473 0.0902492 -8.43246e-17)
(0.992338 0.101708 1.69054e-16)
(0.989171 0.114227 1.6025e-22)
(0.986063 0.127951 -8.49344e-17)
(0.983132 0.143029 0)
(0.980515 0.159595 8.53447e-17)
(0.978342 0.177747 -1.71102e-16)
(0.976702 0.197458 8.57578e-17)
(0.975732 0.218312 0)
(0.975223 0.239234 0)
(1.27508 0.0177702 -5.57358e-18)
(1.04855 0.016732 4.38542e-18)
(0.987329 0.0225742 0)
(1.00595 0.0318867 2.08146e-17)
(1.01366 0.0399744 -2.02481e-17)
(1.01126 0.0480048 -4.06249e-17)
(1.00869 0.0566328 -8.58614e-23)
(1.00694 0.0657888 8.17707e-17)
(1.00514 0.0755092 -8.20331e-17)
(1.00314 0.0859247 4.11485e-17)
(1.00108 0.0971555 -8.25623e-17)
(0.999092 0.109316 8.28288e-17)
(0.997264 0.122528 -8.30969e-17)
(0.995722 0.136922 8.33663e-17)
(0.994622 0.152621 8.36372e-17)
(0.994154 0.169736 -8.39095e-17)
(0.99452 0.188338 0)
(0.995906 0.208422 -8.44577e-17)
(0.998583 0.229718 8.47345e-17)
(1.00245 0.251184 8.49888e-17)
(0.813361 0.0205123 0)
(0.77639 0.0226921 0)
(0.732012 0.025191 4.24653e-17)
(0.678206 0.0280545 -2.305e-17)
(0.612283 0.0312814 -2.52055e-17)
(0.530841 0.034709 4.16983e-17)
(0.430302 0.0377757 -1.54867e-17)
(0.307287 0.0391534 3.4948e-17)
(0.160786 0.0361934 0)
(0.0448819 0.0204657 0)
(0.817565 0.0595506 -1.84261e-17)
(0.781398 0.0661878 -5.93901e-17)
(0.737811 0.0738225 -2.136e-17)
(0.684928 0.0825924 2.31876e-17)
(0.620061 0.0924987 2.53518e-17)
(0.539764 0.103041 -5.5909e-17)
(0.44033 0.112529 4.67058e-17)
(0.318135 0.11689 -8.77851e-17)
(0.171154 0.107756 -1.0053e-17)
(0.0510045 0.0611336 6.42709e-17)
(0.826573 0.0977487 1.85021e-17)
(0.791894 0.108686 -1.98787e-17)
(0.749831 0.121293 4.2899e-17)
(0.698738 0.135771 4.65753e-17)
(0.635915 0.152117 -5.09317e-17)
(0.557831 0.169492 -2.80837e-17)
(0.460521 0.185096 3.12897e-17)
(0.339724 0.192155 -5.29386e-17)
(0.191761 0.176533 8.08592e-17)
(0.0632576 0.100318 -1.5281e-16)
(0.840781 0.13424 3.70307e-17)
(0.808152 0.149317 0)
(0.768222 0.16669 0)
(0.719663 0.186588 -4.66104e-17)
(0.659742 0.209009 5.09699e-17)
(0.584791 0.232764 1.97673e-21)
(0.490461 0.253964 0)
(0.371523 0.263236 7.06481e-17)
(0.222026 0.241074 -6.0696e-17)
(0.0812468 0.13683 1.88248e-16)
(0.859984 0.167777 -3.69353e-17)
(0.829872 0.186698 0)
(0.792586 0.208516 8.56215e-17)
(0.747198 0.233443 0)
(0.690909 0.261467 5.08137e-17)
(0.619864 0.291056 5.60343e-17)
(0.529218 0.317252 0)
(0.412504 0.32822 1.40793e-16)
(0.260902 0.299596 -2.01568e-17)
(0.10429 0.169568 -7.03069e-17)
(0.883557 0.19745 1.8743e-21)
(0.856338 0.219815 -1.57752e-16)
(0.822112 0.245658 -2.49734e-21)
(0.780418 0.27512 0)
(0.728351 0.308177 -5.04804e-17)
(0.661827 0.342945 -5.56458e-17)
(0.575411 0.373433 0)
(0.461175 0.385507 -1.39713e-16)
(0.306925 0.350521 -1.59896e-16)
(0.13146 0.19759 2.3223e-17)
(0.910617 0.222632 7.12946e-22)
(0.886546 0.247999 1.04561e-21)
(0.855692 0.277394 1.68554e-16)
(0.818091 0.310845 -1.21357e-21)
(0.770678 0.3483 -9.99252e-17)
(0.709109 0.387508 -1.10107e-16)
(0.627283 0.421474 -3.06377e-17)
(0.515643 0.433945 3.45143e-17)
(0.358267 0.392663 1.18414e-16)
(0.1616 0.220149 2.29048e-16)
(0.940149 0.242995 -1.65272e-21)
(0.919291 0.270964 7.71686e-17)
(0.891987 0.303439 -1.664e-16)
(0.858729 0.340325 -4.51266e-17)
(0.816218 0.381517 2.46422e-16)
(0.759846 0.424373 1.08557e-16)
(0.682799 0.460917 -1.20731e-16)
(0.57379 0.472989 0)
(0.412928 0.42543 3.88126e-17)
(0.193414 0.23683 -4.04899e-16)
(0.971089 0.258632 -1.16242e-21)
(0.952975 0.28881 -7.59732e-17)
(0.929213 0.323954 3.76967e-21)
(0.90041 0.363786 -8.87798e-17)
(0.862938 0.408111 9.69074e-17)
(0.811987 0.453872 5.33316e-17)
(0.739993 0.492139 5.9274e-17)
(0.633784 0.503059 -3.33244e-17)
(0.469169 0.449212 3.8019e-17)
(0.225628 0.247735 1.76032e-16)
(1.00147 0.271096 -6.95055e-17)
(0.984991 0.303034 -7.45729e-17)
(0.964925 0.340479 8.03396e-17)
(0.940738 0.382778 8.70552e-17)
(0.90859 0.429518 -1.89968e-16)
(0.863508 0.477143 0)
(0.796971 0.515808 0)
(0.693553 0.524333 -3.25747e-17)
(0.524423 0.463941 3.7114e-17)
(0.256267 0.252636 0)
(1.02966 0.290791 6.7976e-17)
(1.01401 0.323654 7.3012e-17)
(0.997496 0.361392 0)
(0.97715 0.403842 -8.53975e-17)
(0.949387 0.449779 0)
(0.908833 0.494909 -1.02748e-16)
(0.845872 0.528867 -5.71495e-17)
(0.743073 0.530641 -6.4336e-17)
(0.568524 0.462977 -1.47037e-16)
(0.279834 0.248157 1.70578e-16)
(1.06044 0.308531 1.5336e-21)
(1.04822 0.341871 -1.48487e-16)
(1.03512 0.37904 2.11426e-21)
(1.01814 0.420329 8.68812e-17)
(0.993653 0.463642 0)
(0.955595 0.503895 1.04604e-16)
(0.89316 0.530355 0)
(0.787339 0.522698 1.31134e-16)
(0.604714 0.446528 1.45424e-20)
(0.297162 0.233986 -1.74075e-16)
(1.09264 0.322121 7.00998e-17)
(1.08426 0.354945 -7.53105e-17)
(1.07442 0.390876 2.43712e-16)
(1.06033 0.430024 -8.81649e-17)
(1.0382 0.469585 -9.63597e-17)
(1.00122 0.503841 -5.31043e-17)
(0.937539 0.521884 2.26068e-21)
(0.826968 0.504368 6.66352e-17)
(0.635317 0.420243 2.66846e-16)
(0.310173 0.214169 4.42875e-17)
(1.1259 0.33077 -1.41869e-16)
(1.12105 0.362357 0)
(1.11409 0.396314 -4.30229e-21)
(1.10226 0.432369 8.92519e-17)
(1.08144 0.467165 2.43943e-16)
(1.04417 0.494566 5.37855e-17)
(0.977704 0.503767 1.19811e-16)
(0.86101 0.476761 -1.01317e-16)
(0.659684 0.38626 -1.93341e-16)
(0.318768 0.19058 1.79794e-16)
(1.15948 0.334177 7.16065e-17)
(1.15764 0.363874 7.69366e-17)
(1.15293 0.395136 -1.66039e-16)
(1.14247 0.427224 -4.5068e-17)
(1.12173 0.456367 -1.9711e-16)
(1.08259 0.476224 -1.63023e-16)
(1.01166 0.476396 -2.42158e-16)
(0.88745 0.440623 1.36579e-16)
(0.676094 0.345846 0)
(0.322338 0.16439 -2.04714e-16)
(1.19238 0.332138 1.08145e-16)
(1.19288 0.359359 0)
(1.18958 0.387285 0)
(1.1794 0.414687 0)
(1.15732 0.437517 0)
(1.11466 0.449443 1.09499e-16)
(1.03759 0.440766 1.22016e-16)
(0.904696 0.397338 0)
(0.683473 0.300663 0)
(0.320687 0.136806 -9.17774e-17)
(1.22355 0.324675 -3.6202e-17)
(1.22554 0.348918 -8.4194e-22)
(1.22263 0.372975 -4.19814e-17)
(1.21148 0.395151 4.55853e-17)
(1.18654 0.411278 -4.98582e-17)
(1.13873 0.415233 1.375e-16)
(1.05405 0.398289 -3.06493e-17)
(0.911728 0.348685 6.91721e-17)
(0.68142 0.252611 -1.98202e-17)
(0.313991 0.109012 9.22883e-17)
(1.25193 0.312048 7.25181e-17)
(1.25442 0.332917 -3.89607e-17)
(1.25074 0.352703 0)
(1.23723 0.369314 -4.56616e-17)
(1.20792 0.378616 0)
(1.15344 0.374897 -5.5096e-17)
(1.06003 0.350625 -3.07017e-17)
(0.908065 0.296602 3.46484e-17)
(0.670083 0.203598 0)
(0.302696 0.0820838 -1.15592e-17)
(1.27651 0.29472 -5.43285e-17)
(1.27844 0.311946 3.89168e-17)
(1.27277 0.3272 0)
(1.25556 0.338099 0)
(1.22049 0.340704 4.9882e-17)
(1.15817 0.329895 -2.75145e-17)
(1.05536 0.299528 -3.0664e-17)
(0.89409 0.243034 -6.92149e-17)
(0.650294 0.15545 3.96656e-17)
(0.28751 0.0569623 -5.19429e-17)
(1.29661 0.273322 5.41258e-17)
(1.29699 0.286654 -5.51369e-22)
(1.28821 0.297129 -2.09188e-17)
(1.26603 0.302229 0)
(1.22394 0.2984 -2.48415e-17)
(1.15275 0.281318 -1.36997e-17)
(1.04014 0.246395 3.8169e-17)
(0.870203 0.189654 8.6138e-18)
(0.622674 0.109831 -4.44196e-17)
(0.268898 0.0344617 5.1694e-17)
(1.04207 0.266612 -4.18456e-16)
(1.07076 0.28278 1.03508e-16)
(1.10003 0.295518 0)
(1.13019 0.304026 1.02385e-16)
(1.16088 0.308054 -3.19843e-23)
(1.19119 0.307421 -1.56536e-18)
(1.22021 0.302093 7.78702e-19)
(1.24708 0.292229 -5.00158e-17)
(1.27095 0.278159 4.9858e-17)
(1.29105 0.260449 -2.46817e-17)
(1.0513 0.253748 2.08683e-16)
(1.0778 0.267288 0)
(1.1047 0.278122 0)
(1.13238 0.285471 1.00645e-16)
(1.1607 0.289048 1.57356e-18)
(1.18885 0.288686 -7.81952e-19)
(1.21605 0.284338 7.78009e-19)
(1.24154 0.276106 4.88166e-17)
(1.26463 0.264229 -4.94387e-17)
(1.28447 0.249228 2.46667e-17)
(1.06029 0.24292 0)
(1.08427 0.254223 -1.03143e-16)
(1.10875 0.263091 1.02207e-16)
(1.13397 0.269093 -1.014e-16)
(1.15992 0.271955 0)
(1.18587 0.271526 -7.82256e-19)
(1.21117 0.267755 -9.887e-17)
(1.23517 0.260712 0)
(1.2573 0.250574 0)
(1.27669 0.237803 -2.46944e-17)
(1.06833 0.232547 0)
(1.09019 0.241856 1.10627e-21)
(1.11244 0.249018 -1.02124e-16)
(1.13534 0.253816 1.01361e-16)
(1.15897 0.256006 7.86785e-19)
(1.18274 0.255454 -1.00944e-16)
(1.2061 0.252112 -2.68947e-22)
(1.22851 0.246022 0)
(1.24952 0.237316 0)
(1.26826 0.226393 0)
(1.07506 0.222491 -1.03749e-16)
(1.09514 0.230172 2.05739e-16)
(1.11546 0.235932 7.97176e-19)
(1.1363 0.239695 -1.02115e-16)
(1.15782 0.241273 -7.86795e-19)
(1.17955 0.240556 -1.00196e-16)
(1.20103 0.237509 1.50437e-16)
(1.22185 0.232159 -3.88408e-19)
(1.24166 0.224607 -4.92019e-17)
(1.2596 0.215191 -2.47506e-17)
(1.08054 0.212705 2.07107e-16)
(1.09906 0.219103 -1.02733e-16)
(1.11769 0.223747 1.01956e-16)
(1.13674 0.22666 1.00494e-16)
(1.1564 0.227708 1.02286e-16)
(1.17628 0.226816 9.94469e-17)
(1.19603 0.223965 -4.99165e-17)
(1.21532 0.219179 -3.88735e-19)
(1.23389 0.21254 3.87524e-19)
(1.25095 0.204342 2.47784e-17)
(1.0849 0.203178 -1.03762e-16)
(1.10201 0.208545 -1.02196e-16)
(1.11917 0.212308 -1.01873e-16)
(1.13666 0.214545 -1.01248e-16)
(1.15468 0.215163 -9.99266e-17)
(1.17292 0.214119 9.86976e-17)
(1.19111 0.21141 -4.9167e-17)
(1.20897 0.207063 0)
(1.22634 0.201151 9.93793e-17)
(1.24247 0.193935 0)
(1.08827 0.193921 0)
(1.1041 0.198446 1.02461e-16)
(1.11995 0.201511 -1.01789e-16)
(1.13609 0.203217 7.9069e-19)
(1.15268 0.203502 -1.02288e-16)
(1.16947 0.202343 -1.00298e-16)
(1.18625 0.199753 5.07591e-17)
(1.20282 0.19576 -4.98425e-17)
(1.21905 0.190435 -9.94799e-17)
(1.23426 0.184017 0)
(1.09076 0.18495 -1.0297e-16)
(1.10543 0.188781 0)
(1.12012 0.191291 1.01706e-16)
(1.13506 0.192583 1.01962e-16)
(1.1504 0.192617 1.10831e-22)
(1.16592 0.191383 9.95487e-17)
(1.18146 0.188902 0)
(1.19685 0.185207 4.98842e-17)
(1.21202 0.180369 4.99847e-17)
(1.22634 0.174606 -2.50571e-17)
(1.09249 0.176277 1.02777e-16)
(1.10612 0.179535 -1.0219e-16)
(1.11977 0.1816 1.01623e-16)
(1.13365 0.182571 -1.00343e-16)
(1.14788 0.18242 1.99859e-16)
(1.16228 0.181146 -9.87985e-17)
(1.17672 0.178774 -7.81882e-19)
(1.19105 0.17534 -3.90045e-19)
(1.20525 0.170912 -4.94515e-17)
(1.21872 0.165697 2.4891e-17)
(1.09357 0.16791 0)
(1.10625 0.170693 1.02056e-16)
(1.11896 0.172401 -1.0154e-16)
(1.1319 0.173123 -7.898e-19)
(1.14515 0.172839 -9.91437e-17)
(1.15856 0.171554 -7.84388e-19)
(1.17202 0.169293 -7.8235e-19)
(1.18541 0.166094 7.8076e-19)
(1.19872 0.162021 4.98912e-17)
(1.21141 0.157271 2.49194e-17)
(1.09409 0.159852 1.02793e-16)
(1.10591 0.162241 -3.98133e-19)
(1.11778 0.163661 0)
(1.12988 0.16419 0)
(1.14225 0.163815 7.86855e-19)
(1.15478 0.162541 -5.17868e-17)
(1.16737 0.160394 1.25256e-23)
(1.17992 0.15741 5.04011e-17)
(1.19242 0.153652 3.90174e-19)
(1.20439 0.149303 -2.49476e-17)
(1.09413 0.152104 -1.02202e-16)
(1.10518 0.154164 -1.01787e-16)
(1.11629 0.155351 -1.01373e-16)
(1.12763 0.155733 -7.89206e-19)
(1.13923 0.155297 1.23795e-23)
(1.15097 0.154052 5.02345e-17)
(1.16278 0.15202 7.83328e-19)
(1.17457 0.149236 9.56254e-23)
(1.18634 0.14576 0)
(1.19765 0.141763 0)
(1.09377 0.14466 -1.0241e-16)
(1.10412 0.146448 2.03703e-16)
(1.11455 0.147447 1.01291e-16)
(1.12521 0.147715 0)
(1.13611 0.147243 -9.99329e-17)
(1.14715 0.146038 4.94663e-17)
(1.15826 0.144122 0)
(1.16936 0.141525 -5.04859e-17)
(1.18047 0.138305 -2.46307e-17)
(1.19116 0.134623 0)
(1.09308 0.137517 1.02219e-16)
(1.1028 0.139077 -1.01916e-16)
(1.11262 0.139925 0)
(1.12266 0.140107 1.00154e-16)
(1.13292 0.139616 1.00721e-16)
(1.14333 0.13846 -1.00537e-16)
(1.15381 0.136658 -4.94102e-17)
(1.1643 0.134237 0)
(1.1748 0.131252 2.50471e-17)
(1.18494 0.127853 0)
(1.09212 0.130665 1.01632e-16)
(1.10127 0.132037 0)
(1.11053 0.132762 0)
(1.12001 0.13288 -1.00116e-16)
(1.1297 0.132384 -1.0398e-23)
(1.13954 0.131282 4.87141e-17)
(1.14945 0.129591 5.10102e-17)
(1.15938 0.127336 -3.92021e-19)
(1.16933 0.124567 1.95883e-19)
(1.17895 0.121425 1.95794e-19)
(1.09093 0.124097 -2.02887e-16)
(1.09957 0.125311 1.01253e-16)
(1.10833 0.125938 7.89386e-19)
(1.1173 0.126008 -7.88024e-19)
(1.12648 0.125518 -5.03609e-17)
(1.13579 0.124473 0)
(1.14518 0.12289 0)
(1.1546 0.120791 5.02213e-17)
(1.16405 0.118222 0)
(1.1732 0.115314 0)
(1.08957 0.117802 1.01651e-16)
(1.09775 0.118885 -1.01515e-16)
(1.10604 0.119432 7.88741e-19)
(1.11456 0.119469 -1.02404e-16)
(1.12327 0.118992 5.11481e-17)
(1.13211 0.118006 0)
(1.14103 0.116527 -7.85736e-19)
(1.14998 0.114574 -4.98709e-17)
(1.15897 0.112191 1.96282e-19)
(1.16769 0.109498 1.96241e-19)
(1.08808 0.11177 -1.01462e-16)
(1.09583 0.112743 3.94485e-19)
(1.10371 0.113227 -1.00877e-16)
(1.11181 0.11324 1.0079e-16)
(1.12009 0.112781 7.86894e-19)
(1.1285 0.111856 -7.86512e-19)
(1.13699 0.110476 4.95322e-17)
(1.14551 0.10866 7.86037e-19)
(1.15407 0.106449 0)
(1.16239 0.103955 0)
(1.08649 0.10599 -3.9379e-19)
(1.09386 0.106871 1.01249e-16)
(1.10136 0.107304 1.00794e-16)
(1.10907 0.107302 -1.01539e-16)
(1.11696 0.106866 5.11486e-17)
(1.12497 0.105999 0)
(1.13307 0.104714 -5.03494e-17)
(1.1412 0.103028 -3.93346e-19)
(1.14937 0.100977 3.9336e-19)
(1.15732 0.0986664 0)
(1.08482 0.100451 3.93586e-19)
(1.09184 0.101255 -1.01117e-16)
(1.099 0.101647 -1.00712e-16)
(1.10637 0.101637 1.00713e-16)
(1.1139 0.101225 -1.00724e-16)
(1.12155 0.100417 0)
(1.12928 0.0992218 0)
(1.13705 0.097656 -3.93678e-19)
(1.14486 0.0957538 -2.50037e-17)
(1.15247 0.0936135 2.54019e-17)
(1.08311 0.0951414 1.00116e-16)
(1.08981 0.0958807 -1.00198e-16)
(1.09666 0.0962395 1.00629e-16)
(1.1037 0.0962265 -5.11239e-17)
(1.11091 0.0958413 7.86935e-19)
(1.11822 0.095089 0)
(1.12562 0.0939793 -5.04115e-17)
(1.13306 0.0925267 -3.94011e-19)
(1.14054 0.0907632 2.56205e-17)
(1.14783 0.0887805 -2.52338e-17)
(1.08137 0.0900509 0)
(1.08779 0.090735 1.0046e-16)
(1.09435 0.0910675 -1.00547e-16)
(1.1011 0.0910547 5.11044e-17)
(1.108 0.0906968 4.95753e-17)
(1.11501 0.0899987 0)
(1.1221 0.0889696 4.96544e-17)
(1.12923 0.087623 3.94351e-19)
(1.1364 0.0859888 1.97285e-19)
(1.1434 0.0841524 1.97366e-19)
(1.07963 0.0851681 3.91163e-19)
(1.08578 0.085805 -3.9191e-19)
(1.09208 0.0861163 1.00465e-16)
(1.09856 0.0861065 7.85917e-19)
(1.10518 0.0857759 -5.03624e-17)
(1.11191 0.0851299 4.96333e-17)
(1.11872 0.0841768 -4.96851e-17)
(1.12557 0.0829294 2.40755e-17)
(1.13245 0.0814157 5.92453e-19)
(1.13918 0.0797153 -1.97593e-19)
(1.07789 0.0804822 9.95633e-17)
(1.08381 0.0810784 3.91398e-19)
(1.08986 0.0813725 0)
(1.0961 0.0813673 0)
(1.10247 0.081064 2.10513e-23)
(1.10894 0.0804675 -5.0438e-17)
(1.11548 0.079586 1.00221e-16)
(1.12207 0.0784315 3.95032e-19)
(1.12869 0.0770303 1.97689e-19)
(1.13516 0.0754565 1.28582e-17)
(1.07618 0.0759825 -9.93804e-17)
(1.08188 0.0765433 -3.90887e-19)
(1.08771 0.0768231 -5.015e-17)
(1.09372 0.0768239 0)
(1.09985 0.0765471 5.03625e-17)
(1.10609 0.0759977 0)
(1.11239 0.0751835 -4.97464e-17)
(1.11873 0.0741159 -2.64883e-17)
(1.1251 0.0728196 3.95779e-19)
(1.13134 0.0713637 1.2943e-23)
(1.0745 0.0716588 -9.99758e-17)
(1.08 0.0721883 3.90377e-19)
(1.08563 0.0724561 5.01089e-17)
(1.09142 0.0724635 -7.85013e-19)
(1.09734 0.0722123 7.86918e-19)
(1.10336 0.0717075 0)
(1.10944 0.0709565 -7.90108e-19)
(1.11555 0.0699702 3.95688e-19)
(1.1217 0.0687719 1.98094e-19)
(1.12772 0.0674259 -1.24913e-17)
(1.07287 0.0675011 9.9016e-17)
(1.07818 0.0680024 3.89868e-19)
(1.08362 0.0682598 -7.82307e-19)
(1.08923 0.0682742 1.56943e-18)
(1.09495 0.0680473 -7.86918e-19)
(1.10076 0.0675845 0)
(1.10663 0.0668929 -2.52992e-17)
(1.11253 0.0659827 0)
(1.11847 0.0648759 0)
(1.12429 0.0636326 1.27042e-17)
(1.07129 0.0634994 4.9611e-17)
(1.07643 0.0639751 0)
(1.0817 0.0642233 0)
(1.08712 0.0642445 -7.84409e-19)
(1.09266 0.0640408 -4.95756e-17)
(1.09828 0.0636175 0)
(1.10396 0.0629814 2.61059e-17)
(1.10967 0.0621425 -1.18906e-18)
(1.11541 0.0611213 3.96999e-19)
(1.12104 0.0599738 -1.27189e-17)
(1.06976 0.0596445 -9.94273e-17)
(1.07475 0.0600964 3.88853e-19)
(1.07986 0.0603361 7.81025e-19)
(1.08512 0.0603637 -5.17512e-17)
(1.09048 0.0601818 1.02299e-16)
(1.09593 0.0597955 -7.89414e-19)
(1.10144 0.0592115 2.53304e-17)
(1.10697 0.0584392 -3.96689e-19)
(1.11252 0.0574981 1.98705e-19)
(1.11798 0.0564402 1.98963e-19)
(1.0683 0.0559271 4.90435e-17)
(1.07314 0.0563566 3.88346e-19)
(1.07811 0.0565882 0)
(1.08321 0.0566217 4.93799e-17)
(1.08842 0.0564601 -4.95755e-17)
(1.09371 0.0561085 2.52696e-17)
(1.09905 0.0555732 1.95229e-24)
(1.10442 0.0548633 -3.97026e-19)
(1.1098 0.0539971 3.97816e-19)
(1.1151 0.0530231 0)
(1.0669 0.0523384 -3.85462e-19)
(1.07161 0.0527465 3.87841e-19)
(1.07644 0.05297 0)
(1.08141 0.0530089 -5.01442e-17)
(1.08647 0.052866 7.86908e-19)
(1.09161 0.0525467 -5.13459e-17)
(1.0968 0.052057 -2.53616e-17)
(1.10202 0.0514055 -2.58287e-17)
(1.10724 0.0506096 1.99114e-19)
(1.11239 0.0497141 1.99423e-19)
(1.06557 0.0488699 -4.96341e-17)
(1.07016 0.0492572 4.99663e-17)
(1.07487 0.0494725 0)
(1.07971 0.0495159 5.0908e-17)
(1.08464 0.0493904 -7.86912e-19)
(1.08964 0.0491011 2.52864e-17)
(1.09469 0.048654 0)
(1.09976 0.0480574 2.50552e-17)
(1.10485 0.0473273 5.97952e-19)
(1.10985 0.0465055 -1.99654e-19)
(1.06431 0.0455133 4.87755e-17)
(1.06879 0.0458802 3.86794e-19)
(1.07339 0.046087 7.78467e-19)
(1.07811 0.046134 -7.82899e-19)
(1.08292 0.0460244 0)
(1.08779 0.0457631 2.52948e-17)
(1.09271 0.0453559 -2.61865e-17)
(1.09765 0.0448106 2.58726e-17)
(1.1026 0.0441423 1.99525e-19)
(1.10748 0.0433898 1.29925e-17)
(1.06313 0.0422606 -4.907e-17)
(1.06751 0.0426072 -4.94502e-17)
(1.072 0.0428052 0)
(1.07661 0.042855 0)
(1.0813 0.0427598 0)
(1.08606 0.0425244 -5.06063e-17)
(1.09087 0.0421545 7.94016e-19)
(1.09569 0.0416574 -2.66914e-17)
(1.10051 0.0410473 3.99459e-19)
(1.10527 0.0403599 -1.28075e-17)
(1.06202 0.0391042 -3.8262e-19)
(1.0663 0.0394305 3.8583e-19)
(1.0707 0.0396192 -7.7719e-19)
(1.07521 0.0396708 7.82291e-19)
(1.0798 0.0395887 7.86898e-19)
(1.08446 0.0393774 -7.90986e-19)
(1.08915 0.0390423 2.46298e-17)
(1.09386 0.0385905 3.98722e-19)
(1.09857 0.0380351 3.99872e-19)
(1.10322 0.037409 0)
(1.06098 0.0360366 4.85098e-17)
(1.06518 0.0363425 3.85329e-19)
(1.0695 0.0365213 2.48497e-17)
(1.07391 0.0365739 7.81982e-19)
(1.07841 0.0365034 -4.80325e-24)
(1.08297 0.0363144 -7.91248e-19)
(1.08756 0.0360121 0)
(1.09217 0.0356029 0)
(1.09678 0.0350991 1.28091e-17)
(1.10133 0.0345308 0)
(1.06002 0.0330507 3.81272e-19)
(1.06415 0.0333358 -3.8483e-19)
(1.06838 0.0335043 -2.56053e-17)
(1.07271 0.0335569 4.61909e-24)
(1.07713 0.0334969 7.86894e-19)
(1.08159 0.0333286 2.53283e-17)
(1.08609 0.0330568 2.54557e-17)
(1.09061 0.0326878 -3.99397e-19)
(1.09512 0.0322327 -1.24216e-17)
(1.09958 0.0317191 0)
(1.05914 0.0301394 -3.80581e-19)
(1.06319 0.0304035 3.84331e-19)
(1.06736 0.030561 -2.4809e-17)
(1.07161 0.0306128 0)
(1.07595 0.0305621 0)
(1.08033 0.0304129 0)
(1.08475 0.0301699 -2.54714e-17)
(1.08918 0.0298388 -1.31914e-17)
(1.09361 0.0294299 4.01115e-19)
(1.09798 0.0289681 0)
(1.05833 0.0272961 -3.79891e-19)
(1.06232 0.0275388 3.83833e-19)
(1.06642 0.0276848 2.4014e-17)
(1.07061 0.027735 4.44994e-24)
(1.07488 0.0276924 7.86885e-19)
(1.07919 0.027561 0)
(1.08353 0.0273451 7.9647e-19)
(1.08789 0.0270498 1.16023e-17)
(1.09223 0.0266847 -1.24474e-17)
(1.09653 0.0262721 0)
(1.0576 0.0245142 0)
(1.06154 0.0247352 2.45335e-17)
(1.06558 0.024869 2.47682e-17)
(1.06971 0.0249168 -7.80761e-19)
(1.07391 0.0248814 7.86879e-19)
(1.07815 0.0247666 0)
(1.08243 0.0245761 1.35484e-17)
(1.08671 0.0243149 -1.20127e-18)
(1.09099 0.0239914 1.30633e-17)
(1.09522 0.0236257 2.01521e-19)
(1.05694 0.0217874 -3.78518e-19)
(1.06083 0.0219863 -2.41189e-17)
(1.06482 0.0221074 -2.39745e-17)
(1.0689 0.0221521 -4.31413e-24)
(1.07304 0.022123 -7.86873e-19)
(1.07723 0.0220235 0)
(1.08145 0.0218572 -1.35568e-17)
(1.08567 0.0216284 4.00767e-19)
(1.08988 0.0213446 6.03546e-19)
(1.09405 0.0210237 -2.01757e-19)
(1.05636 0.0191096 3.77834e-19)
(1.06021 0.0192858 -3.82346e-19)
(1.06415 0.0193938 0)
(1.06818 0.0194347 0)
(1.07228 0.0194111 0)
(1.07641 0.0193261 -1.26851e-17)
(1.08058 0.0191827 -1.27672e-17)
(1.08474 0.0189848 -4.01105e-19)
(1.0889 0.018739 2.01393e-19)
(1.09301 0.0184609 2.01993e-19)
(1.05586 0.0164747 -3.77152e-19)
(1.05967 0.0166279 3.81852e-19)
(1.06357 0.0167222 1.31257e-17)
(1.06756 0.0167589 -1.32573e-17)
(1.07161 0.0167401 0)
(1.0757 0.0166685 2.53785e-17)
(1.07982 0.0165469 1.27751e-17)
(1.08394 0.0163787 6.02174e-18)
(1.08804 0.0161694 -6.24962e-18)
(1.09211 0.0159324 2.0223e-19)
(1.05542 0.0138767 -1.24236e-17)
(1.0592 0.0140066 1.25848e-17)
(1.06308 0.0140869 -1.23435e-17)
(1.06703 0.0141188 2.41657e-17)
(1.07104 0.0141042 7.86852e-19)
(1.0751 0.0140454 -2.53868e-17)
(1.07917 0.0139447 6.39148e-18)
(1.08325 0.0138049 -6.83048e-18)
(1.08731 0.0136307 6.86157e-18)
(1.09134 0.0134334 0)
(1.05507 0.01131 1.24012e-17)
(1.05882 0.0114162 -3.80869e-19)
(1.06267 0.0114822 -7.70831e-19)
(1.06659 0.0115089 -1.16884e-17)
(1.07058 0.0114979 0)
(1.0746 0.0114512 1.26976e-17)
(1.07864 0.0113706 -7.19486e-18)
(1.08268 0.0112582 -5.22778e-18)
(1.08671 0.011118 -6.06064e-19)
(1.0907 0.0109591 2.02705e-19)
(1.05478 0.00876891 -1.20038e-17)
(1.05852 0.00885115 -1.98242e-24)
(1.06234 0.00890255 7.70198e-19)
(1.06624 0.00892379 -1.55784e-18)
(1.0702 0.00891612 1.57367e-18)
(1.0742 0.0088809 -7.14473e-18)
(1.07821 0.00881953 5.59946e-18)
(1.08223 0.00873373 3.62234e-18)
(1.08622 0.00862643 3.84241e-18)
(1.09018 0.00850461 -2.02944e-19)
(1.05457 0.00624769 1.16078e-17)
(1.05829 0.00630581 -1.17764e-17)
(1.0621 0.0063424 0)
(1.06599 0.00635787 0)
(1.06992 0.00635301 7.86824e-19)
(1.0739 0.00632874 5.55883e-18)
(1.07789 0.00628601 -6.40333e-18)
(1.08189 0.00622599 2.81979e-18)
(1.08586 0.00615072 -3.03665e-18)
(1.0898 0.00606513 2.03183e-19)
(1.05442 0.00374072 3.73771e-19)
(1.05814 0.00377439 -3.79395e-19)
(1.06194 0.00379581 3.07573e-18)
(1.06581 0.00380508 -7.78305e-19)
(1.06974 0.00380255 3.14727e-18)
(1.0737 0.00378871 -2.38314e-18)
(1.07768 0.00376406 0)
(1.08166 0.00372926 -4.03172e-19)
(1.08562 0.00368546 4.05311e-19)
(1.08954 0.00363554 -8.13686e-19)
(1.05435 0.00124403 -3.7413e-19)
(1.05807 0.00125412 3.79985e-19)
(1.06186 0.00126064 -3.85275e-18)
(1.06573 0.00126352 7.80339e-19)
(1.06965 0.00126283 -1.57846e-18)
(1.0736 0.00125867 1.59427e-18)
(1.07758 0.00125116 0)
(1.08155 0.00124046 -4.04826e-19)
(1.0855 0.00122692 2.03534e-19)
(1.08942 0.00121141 1.02168e-18)
(1.28326 0.017463 0)
(1.03909 0.0134916 0)
(0.989471 0.0209972 0)
(1.01005 0.032935 0)
(1.01533 0.0417156 0)
(1.01268 0.049786 0)
(1.01084 0.0586276 0)
(1.00972 0.0680718 0)
(1.00851 0.0780225 0)
(1.00722 0.0886083 0)
(1.00601 0.0999622 0)
(1.00497 0.112191 0)
(1.00423 0.125402 0)
(1.0039 0.139705 0)
(1.00417 0.155203 0)
(1.00524 0.171979 0)
(1.00737 0.190067 0)
(1.01091 0.209393 0)
(1.01638 0.229622 0)
(1.0235 0.24945 0)
(1.28771 0.0130833 0)
(1.03412 0.0154035 0)
(0.990281 0.0228389 0)
(1.01204 0.0333259 0)
(1.01624 0.0421121 0)
(1.0137 0.050483 0)
(1.01243 0.0594193 0)
(1.01179 0.0688659 0)
(1.01107 0.0787876 0)
(1.01036 0.0892927 0)
(1.00981 0.100492 0)
(1.00952 0.112476 0)
(1.00959 0.125334 0)
(1.01016 0.139153 0)
(1.01142 0.154005 0)
(1.01356 0.169939 0)
(1.01684 0.18694 0)
(1.02162 0.204841 0)
(1.02828 0.223086 0)
(1.03605 0.240129 0)
(1.29141 0.00996974 0)
(1.0319 0.0168948 0)
(0.990058 0.0242633 0)
(1.01283 0.0334874 0)
(1.01687 0.0422572 0)
(1.01458 0.0508748 0)
(1.01379 0.0598578 0)
(1.01362 0.0692597 0)
(1.01339 0.0791043 0)
(1.01323 0.0894779 0)
(1.01329 0.100468 0)
(1.01367 0.112152 0)
(1.01447 0.124599 0)
(1.01583 0.137872 0)
(1.01792 0.152019 0)
(1.02094 0.167054 0)
(1.02511 0.182921 0)
(1.03073 0.19941 0)
(1.0381 0.215921 0)
(1.04656 0.23101 0)
(1.29486 0.00860938 0)
(1.031 0.0171981 0)
(0.989627 0.0247258 0)
(1.0132 0.0334824 0)
(1.01739 0.042261 0)
(1.01535 0.0509951 0)
(1.01497 0.0599841 0)
(1.01523 0.0693258 0)
(1.01547 0.0790678 0)
(1.01582 0.0892807 0)
(1.01644 0.100036 0)
(1.01743 0.111396 0)
(1.01887 0.123416 0)
(1.02092 0.13614 0)
(1.02371 0.149592 0)
(1.02744 0.163762 0)
(1.0323 0.178573 0)
(1.03853 0.193806 0)
(1.04638 0.208889 0)
(1.05531 0.222455 0)
(1.2982 0.00799753 0)
(1.0307 0.0170962 0)
(0.989289 0.0247674 0)
(1.01348 0.0333397 0)
(1.01788 0.0420834 0)
(1.01606 0.0508359 0)
(1.01602 0.0597887 0)
(1.01667 0.0690416 0)
(1.01733 0.0786471 0)
(1.01815 0.0886644 0)
(1.01928 0.0991521 0)
(1.02079 0.110161 0)
(1.02281 0.121731 0)
(1.02543 0.13389 0)
(1.02882 0.146647 0)
(1.03312 0.159975 0)
(1.03852 0.173784 0)
(1.04519 0.187859 0)
(1.05335 0.201665 0)
(1.06256 0.213909 0)
(1.30147 0.00767589 0)