/*--------------------------------*- C++ -*----------------------------------*\
  =========                 |
  \\      /  F ield         | OpenFOAM: The Open Source CFD Toolbox
   \\    /   O peration     | Website:  https://openfoam.org
    \\  /    A nd           | Version:  6
     \\/     M anipulation  |
\*---------------------------------------------------------------------------*/
FoamFile
{
    version     2.0;
    format      ascii;
    class       volVectorField;
    location    "0.15";
    object      U;
}
// * * * * * * * * * * * * * * * * * * * * * * * * * * * * * * * * * * * * * //

dimensions      [0 1 -1 0 0 0 0];

internalField   nonuniform List<vector> 
5600
(
(0.964199 0.000153474 3.75735e-19)
(0.989358 0.000695635 -6.44753e-18)
(0.998443 0.00118664 6.43276e-18)
(0.995121 0.00172928 0)
(0.991033 0.00228493 0)
(0.987654 0.00284239 0)
(0.983802 0.00342973 -1.19987e-17)
(0.979065 0.0040648 1.19714e-17)
(0.97347 0.00475456 0)
(0.967007 0.00550682 0)
(0.9596 0.00633222 0)
(0.951154 0.00724273 0)
(0.941564 0.00825129 0)
(0.930714 0.00937212 -2.3622e-17)
(0.918468 0.0106205 2.35692e-17)
(0.904674 0.0120114 -4.7034e-17)
(0.889164 0.0135549 4.69291e-17)
(0.871764 0.0152457 0)
(0.852307 0.0170421 -3.65016e-19)
(0.830669 0.0188125 0)
(0.964268 0.000721393 -3.70496e-19)
(0.989742 0.00227604 6.35823e-18)
(0.998471 0.00366304 -6.34601e-18)
(0.995024 0.0051691 0)
(0.991011 0.00675387 0)
(0.987701 0.00838677 2.44961e-17)
(0.983895 0.0101083 7.21065e-23)
(0.979213 0.0119567 -7.39387e-19)
(0.973691 0.0139571 1.11719e-22)
(0.96732 0.0161354 -2.35736e-17)
(0.960027 0.018522 0)
(0.95172 0.0211508 -4.77033e-17)
(0.942301 0.0240588 4.68805e-17)
(0.93166 0.0272862 0)
(0.919671 0.0308761 0)
(0.906191 0.0348694 0)
(0.891063 0.039293 0)
(0.874123 0.0441286 -4.64433e-17)
(0.855203 0.049256 4.67182e-17)
(0.834091 0.0543408 4.55777e-17)
(0.964742 0.00143832 0)
(0.990046 0.00385227 0)
(0.99853 0.00607562 0)
(0.995045 0.0085664 0)
(0.991109 0.0111788 2.34739e-17)
(0.98789 0.013867 -2.41717e-17)
(0.984182 0.016703 -1.46279e-18)
(0.979629 0.0197468 -7.30311e-19)
(0.974272 0.0230387 2.33357e-17)
(0.968106 0.0266213 -2.18449e-17)
(0.961064 0.0305442 -1.45419e-18)
(0.953064 0.0348619 4.7192e-17)
(0.944019 0.0396336 -4.78474e-17)
(0.933832 0.0449234 1.4478e-18)
(0.922395 0.0507995 4.62622e-17)
(0.909583 0.0573262 -9.38323e-17)
(0.895257 0.0645449 -1.44201e-18)
(0.879267 0.0724262 4.60595e-17)
(0.861443 0.0807766 -1.43726e-18)
(0.841498 0.0890796 -7.17965e-19)
(0.965621 0.00209262 0)
(0.990415 0.00545711 -1.44837e-18)
(0.998621 0.00851084 0)
(0.995169 0.011924 0)
(0.991353 0.0155139 0)
(0.988267 0.0192178 0)
(0.984722 0.0231284 1.44127e-18)
(0.980379 0.0273248 2.44775e-17)
(0.975289 0.0318616 -2.30151e-17)
(0.969454 0.0367966 -1.43704e-18)
(0.962814 0.0421963 2.87126e-18)
(0.955303 0.0481331 0)
(0.946849 0.054685 -4.44178e-17)
(0.937377 0.0619366 4.4374e-17)
(0.926803 0.0699769 4.57611e-17)
(0.915029 0.0788904 -4.57159e-17)
(0.901946 0.0887317 9.27707e-17)
(0.887425 0.0994636 -9.12532e-17)
(0.871315 0.110831 1.42446e-18)
(0.85328 0.122169 1.42365e-18)
(0.966916 0.0027309 -5.62536e-18)
(0.990899 0.00705404 7.10244e-18)
(0.998739 0.0109097 -1.13587e-17)
(0.995376 0.0151868 -1.1354e-17)
(0.991738 0.0196958 2.26986e-17)
(0.98884 0.0243593 2.26893e-17)
(0.985525 0.0292846 -2.26798e-17)
(0.981478 0.0345675 1.41689e-18)
(0.976759 0.0402756 1.4163e-18)
(0.971378 0.0464795 4.53029e-17)
(0.96529 0.0532595 -9.05676e-17)
(0.958445 0.0607018 1.41425e-18)
(0.950795 0.0688987 4.66594e-17)
(0.94229 0.0779495 1.41332e-18)
(0.932876 0.0879584 -4.37947e-17)
(0.922496 0.099024 4.80121e-17)
(0.911076 0.111211 1.41151e-18)
(0.898521 0.124474 0)
(0.88472 0.138505 1.4103e-18)
(0.869322 0.152514 1.4101e-18)
(0.968629 0.00335951 5.50478e-18)
(0.9915 0.00861336 -5.56149e-18)
(0.998879 0.0132259 1.39059e-18)
(0.995656 0.0183052 0)
(0.992257 0.0236662 2.2259e-17)
(0.989601 0.0292199 -2.22636e-17)
(0.986582 0.0350851 1.39176e-18)
(0.982914 0.0413717 -4.73298e-17)
(0.978664 0.048158 -2.78483e-18)
(0.973855 0.055525 8.91274e-17)
(0.968457 0.0635621 -4.73583e-17)
(0.962442 0.0723647 -1.39318e-18)
(0.955787 0.0820333 -4.73773e-17)
(0.948474 0.092675 -4.59931e-17)
(0.940487 0.104401 8.7821e-17)
(0.931813 0.117318 8.64442e-17)
(0.922423 0.131492 -9.06436e-17)
(0.912266 0.146872 8.78717e-17)
(0.901282 0.163103 -1.79961e-16)
(0.889145 0.179293 8.79184e-17)
(0.970759 0.0039686 0)
(0.992216 0.0101132 0)
(0.999036 0.0154277 -1.35957e-18)
(0.996001 0.0212349 2.17725e-17)
(0.992899 0.0273678 -2.17917e-17)
(0.99054 0.0337291 -1.36319e-18)
(0.987878 0.0404458 -1.3644e-18)
(0.984663 0.0476385 1.36561e-18)
(0.980972 0.0553938 1.36681e-18)
(0.976838 0.0637985 0)
(0.97225 0.0729473 4.51841e-17)
(0.967204 0.0829383 1.91315e-22)
(0.961705 0.0938736 -4.252e-17)
(0.95577 0.10586 -8.64877e-17)
(0.949427 0.119008 1.75874e-16)
(0.942708 0.13342 -8.66384e-17)
(0.935638 0.149162 8.80907e-17)
(0.92821 0.166176 -8.67892e-17)
(0.920432 0.184068 -8.82436e-17)
(0.912027 0.201877 8.69441e-17)
(0.973296 0.00453274 0)
(0.993049 0.0115391 1.325e-18)
(0.99921 0.0174934 -2.12337e-17)
(0.996406 0.0239326 2.25971e-17)
(0.993656 0.0307427 -2.13022e-17)
(0.991644 0.0378188 2.40036e-17)
(0.989397 0.0452877 0)
(0.9867 0.0532763 1.33783e-18)
(0.983641 0.0618761 0)
(0.980265 0.071176 -1.34215e-18)
(0.976582 0.0812698 4.30183e-17)
(0.972612 0.0922524 -4.30876e-17)
(0.96839 0.104219 -8.63146e-17)
(0.96397 0.11727 8.51028e-17)
(0.959421 0.131503 0)
(0.95483 0.147012 0)
(0.950273 0.163853 8.68731e-17)
(0.945793 0.181966 1.63825e-22)
(0.941474 0.20094 -8.71533e-17)
(0.937114 0.219799 8.86523e-17)
(0.976223 0.00497062 -4.46673e-18)
(0.994038 0.0129285 4.51689e-18)
(0.999401 0.019463 0)
(0.996861 0.026401 -1.94494e-18)
(0.994532 0.0337933 -2.07954e-17)
(0.992916 0.0415081 -2.21478e-17)
(0.991126 0.0496463 8.35787e-17)
(0.988996 0.058337 -4.31982e-17)
(0.986623 0.0676744 -4.19895e-17)
(0.984063 0.0777442 4.34053e-17)
(0.981346 0.0886332 -8.43821e-17)
(0.978516 0.100425 1.6917e-16)
(0.97564 0.113202 1.87312e-22)
(0.972806 0.127042 -8.49924e-17)
(0.970126 0.142027 0)
(0.967736 0.158229 8.54031e-17)
(0.965774 0.175692 -1.71219e-16)
(0.96434 0.194366 8.58164e-17)
(0.963624 0.213852 0)
(0.963553 0.233146 0)
(0.979517 0.00521712 -5.57998e-18)
(0.995365 0.0143635 4.39036e-18)
(0.999611 0.0213754 0)
(0.997375 0.0286388 2.08284e-17)
(0.995591 0.0365346 -2.02615e-17)
(0.994424 0.0448443 -4.06525e-17)
(0.99312 0.0536009 -5.12081e-23)
(0.99159 0.0629337 8.18263e-17)
(0.989938 0.0729422 -8.2089e-17)
(0.988224 0.0837062 4.11765e-17)
(0.986497 0.0952996 -8.26186e-17)
(0.984823 0.107789 8.28854e-17)
(0.983295 0.121233 -8.31537e-17)
(0.982033 0.135682 8.34233e-17)
(0.981187 0.151184 8.36944e-17)
(0.980945 0.167775 -8.39668e-17)
(0.981511 0.185473 0)
(0.983082 0.204255 -8.45155e-17)
(0.985961 0.223879 8.47923e-17)
(0.990191 0.243361 8.50471e-17)
(0.803603 0.020336 0)
(0.766982 0.0224387 0)
(0.723132 0.024865 4.2494e-17)
(0.670048 0.0276678 -2.30656e-17)
(0.605045 0.0308519 -2.52225e-17)
(0.524709 0.034258 4.17263e-17)
(0.425438 0.0373245 -1.54971e-17)
(0.303833 0.0387211 3.49715e-17)
(0.158882 0.0358036 0)
(0.0442731 0.0202081 0)
(0.80778 0.0590338 -1.84387e-17)
(0.771989 0.065441 -5.94303e-17)
(0.728955 0.0728549 -2.13744e-17)
(0.676818 0.0814376 2.32033e-17)
(0.612891 0.0912101 2.53689e-17)
(0.533715 0.101684 -5.59466e-17)
(0.435552 0.111171 4.67372e-17)
(0.314742 0.115595 -8.78442e-17)
(0.169254 0.106602 -1.00598e-17)
(0.0503579 0.0603745 6.43141e-17)
(0.81673 0.0968015 1.85147e-17)
(0.782479 0.107361 -1.98922e-17)
(0.741021 0.119605 4.2928e-17)
(0.690723 0.133777 4.66068e-17)
(0.628887 0.149911 -5.09661e-17)
(0.551958 0.16719 -2.81027e-17)
(0.455924 0.182818 3.13108e-17)
(0.33647 0.190018 -5.29743e-17)
(0.189884 0.174676 8.09137e-17)
(0.0625455 0.0991123 -1.52913e-16)
(0.830851 0.132729 3.7056e-17)
(0.798723 0.147278 0)
(0.759478 0.164148 0)
(0.711794 0.183633 -4.66419e-17)
(0.652935 0.205781 5.10043e-17)
(0.579197 0.229442 1.94531e-21)
(0.486163 0.250738 0)
(0.368513 0.260291 7.06957e-17)
(0.220225 0.23861 -6.07369e-17)
(0.0804654 0.135269 1.88374e-16)
(0.849939 0.165535 -3.69604e-17)
(0.820422 0.183773 0)
(0.783929 0.204948 8.56796e-17)
(0.739529 0.229361 0)
(0.684412 0.257074 5.08482e-17)
(0.614674 0.28661 5.60722e-17)
(0.525368 0.313036 0)
(0.409887 0.32451 1.40888e-16)
(0.25928 0.296653 -2.01704e-17)
(0.103471 0.167775 -7.03543e-17)
(0.873365 0.194275 1.81423e-21)
(0.846852 0.215789 -1.57859e-16)
(0.813557 0.240843 -2.43343e-21)
(0.773004 0.269697 0)
(0.722266 0.302427 -5.05146e-17)
(0.657189 0.337231 -5.56835e-17)
(0.572194 0.368163 0)
(0.459151 0.381072 -1.39807e-16)
(0.305646 0.347251 -1.60004e-16)
(0.130682 0.195713 2.32387e-17)
(0.900229 0.218293 6.9891e-22)
(0.876992 0.242613 1.02155e-21)
(0.847246 0.271058 1.68669e-16)
(0.810986 0.303808 -1.20299e-21)
(0.765115 0.340945 -9.9993e-17)
(0.705193 0.380337 -1.10182e-16)
(0.624924 0.415053 -3.06584e-17)
(0.514469 0.428816 3.45377e-17)
(0.357564 0.389226 1.18494e-16)
(0.16099 0.218346 2.29203e-16)
(0.929475 0.237235 -1.60735e-21)
(0.909612 0.26391 7.72212e-17)
(0.883646 0.295243 -1.66514e-16)
(0.85199 0.331333 -4.51572e-17)
(0.8113 0.372246 2.46589e-16)
(0.756846 0.4155 1.08631e-16)
(0.681563 0.453212 -1.20813e-16)
(0.573776 0.467177 0)
(0.4131 0.421979 3.8839e-17)
(0.193148 0.235259 -4.05174e-16)
(0.959984 0.251153 -1.13227e-21)
(0.943104 0.279689 -7.60252e-17)
(0.920985 0.313453 3.6543e-21)
(0.894104 0.352389 -8.88402e-17)
(0.858797 0.396511 9.69736e-17)
(0.810107 0.44297 5.33678e-17)
(0.740155 0.482958 5.93142e-17)
(0.635272 0.496539 -3.3347e-17)
(0.470566 0.445881 3.80448e-17)
(0.225926 0.246537 1.76152e-16)
(0.989814 0.261355 -6.95533e-17)
(0.974959 0.291173 -7.4624e-17)
(0.956892 0.326981 8.03947e-17)
(0.934969 0.368333 8.71148e-17)
(0.905368 0.415042 -1.90098e-16)
(0.862951 0.463804 0)
(0.798821 0.504924 0)
(0.696916 0.517074 -3.25968e-17)
(0.52745 0.460848 3.71391e-17)
(0.257387 0.251929 0)
(1.01801 0.276982 6.80225e-17)
(1.00434 0.307719 7.30623e-17)
(0.99016 0.343984 0)
(0.972462 0.385817 -8.54562e-17)
(0.947674 0.432215 0)
(0.910215 0.479169 -1.02818e-16)
(0.850014 0.516459 -5.71884e-17)
(0.748861 0.522852 -6.43797e-17)
(0.573651 0.460289 -1.47137e-16)
(0.282046 0.248019 1.70695e-16)
(1.04901 0.28994 1.52823e-21)
(1.03922 0.321223 -1.4859e-16)
(1.02892 0.357193 2.11333e-21)
(1.01511 0.398351 8.69409e-17)
(0.994162 0.442789 0)
(0.959733 0.485711 1.04675e-16)
(0.900456 0.516497 0)
(0.796361 0.514506 1.31223e-16)
(0.612582 0.444346 1.47357e-20)
(0.300789 0.234451 -1.74193e-16)
(1.08155 0.297885 7.01477e-17)
(1.07615 0.328897 -7.53627e-17)
(1.0697 0.364025 2.4388e-16)
(1.05943 0.403638 -8.82257e-17)
(1.0415 0.445117 -9.64259e-17)
(1.00878 0.483022 -5.31406e-17)
(0.948713 0.506502 2.43532e-21)
(0.83994 0.495774 6.66806e-17)
(0.646536 0.418568 2.67026e-16)
(0.315535 0.215214 4.43176e-17)
(1.11523 0.300037 -1.41966e-16)
(1.114 0.330172 0)
(1.11113 0.363837 -4.16479e-21)
(1.1039 0.401064 8.93136e-17)
(1.08809 0.438692 2.4411e-16)
(1.05582 0.470843 5.38223e-17)
(0.993501 0.486696 1.19892e-16)
(0.87867 0.467658 -1.01386e-16)
(0.674878 0.384989 -1.93472e-16)
(0.326181 0.192112 1.79916e-16)
(1.14931 0.29613 7.16554e-17)
(1.15183 0.324835 7.69902e-17)
(1.15207 0.356425 -1.66154e-16)
(1.14716 0.390503 -4.50992e-17)
(1.13239 0.423507 -1.97246e-16)
(1.09912 0.449319 -1.63135e-16)
(1.0329 0.457431 -2.42323e-16)
(0.910576 0.430829 1.36671e-16)
(0.695878 0.344765 0)
(0.332081 0.166244 -2.04853e-16)
(1.18278 0.286 1.08219e-16)
(1.18853 0.312781 0)
(1.19122 0.341755 0)
(1.18772 0.372067 0)
(1.17273 0.39989 0)
(1.13691 0.41906 1.09574e-16)
(1.06515 0.419652 1.22099e-16)
(0.934066 0.38658 0)
(0.708407 0.29945 0)
(0.332977 0.138748 -9.18392e-17)
(1.21459 0.269727 -3.62267e-17)
(1.2229 0.294158 -9.73594e-22)
(1.22722 0.320071 -4.20109e-17)
(1.22406 0.346172 4.5617e-17)
(1.20751 0.368508 -4.98925e-17)
(1.16761 0.381054 1.37594e-16)
(1.08882 0.374714 -3.06701e-17)
(0.948062 0.336602 6.92183e-17)
(0.711953 0.250841 -1.98334e-17)
(0.328956 0.110756 9.23503e-17)
(1.24367 0.247642 7.25674e-17)
(1.25378 0.269392 -3.89883e-17)
(1.25879 0.291922 0)
(1.25482 0.313551 -4.56934e-17)
(1.23534 0.330346 0)
(1.18989 0.336595 -5.51336e-17)
(1.10286 0.324235 -3.07223e-17)
(0.951972 0.282757 3.46713e-17)
(0.706509 0.200764 0)
(0.320358 0.0833059 -1.15669e-17)
(1.26912 0.220285 -5.43653e-17)
(1.28018 0.239155 3.89445e-17)
(1.28489 0.258122 0)
(1.27895 0.275207 0)
(1.25529 0.286638 4.99162e-17)
(1.20311 0.28717 -2.75334e-17)
(1.107 0.269949 -3.06845e-17)
(0.946029 0.226939 -6.92607e-17)
(0.692728 0.150996 3.96915e-17)
(0.307781 0.0573348 -5.19772e-17)
(1.28985 0.188509 5.41624e-17)
(1.30122 0.204324 -6.60709e-22)
(1.30485 0.219566 -2.09336e-17)
(1.29597 0.23208 0)
(1.26702 0.238411 -2.48586e-17)
(1.20706 0.233963 -1.37089e-17)
(1.10124 0.213269 3.81946e-17)
(0.930445 0.170793 8.61949e-18)
(0.671011 0.103191 -4.44486e-17)
(0.291549 0.033679 5.17281e-17)
(1.02972 0.253916 -4.18743e-16)
(1.05821 0.265172 1.03579e-16)
(1.08735 0.272095 0)
(1.11741 0.273912 1.02454e-16)
(1.14797 0.270408 -2.98114e-23)
(1.1781 0.26145 -1.56636e-18)
(1.20691 0.247076 7.79224e-19)
(1.23348 0.227525 -5.00494e-17)
(1.25708 0.203204 4.98913e-17)
(1.27651 0.174854 -2.46981e-17)
(1.03857 0.240881 2.08827e-16)
(1.06471 0.249479 0)
(1.0912 0.254434 0)
(1.1184 0.255023 1.00715e-16)
(1.14613 0.251016 1.57466e-18)
(1.17353 0.24231 -7.82307e-19)
(1.19984 0.228938 7.78559e-19)
(1.22426 0.211085 4.88511e-17)
(1.2462 0.189077 -4.94739e-17)
(1.26441 0.163537 2.46844e-17)
(1.04699 0.229846 0)
(1.07055 0.236239 -1.03214e-16)
(1.09444 0.239258 1.02279e-16)
(1.11892 0.238526 -1.01471e-16)
(1.14392 0.233842 0)
(1.1687 0.225133 -7.82604e-19)
(1.19256 0.212437 -9.89401e-17)
(1.21487 0.195911 0)
(1.23511 0.175823 0)
(1.25206 0.15269 -2.47121e-17)
(1.05439 0.219371 0)
(1.07575 0.223868 9.4223e-22)
(1.09728 0.225282 -1.02195e-16)
(1.11925 0.223448 1.01432e-16)
(1.14169 0.218201 7.87339e-19)
(1.16396 0.209497 -1.01015e-16)
(1.18548 0.197382 -4.50598e-22)
(1.20571 0.181989 0)
(1.22424 0.163543 0)
(1.23991 0.142468 0)
(1.06052 0.209298 -1.03821e-16)
(1.08 0.212283 2.05882e-16)
(1.09949 0.212427 7.97735e-19)
(1.11926 0.209705 -1.02187e-16)
(1.1394 0.204008 -7.8735e-19)
(1.15938 0.195322 -1.00267e-16)
(1.17874 0.183707 1.50544e-16)
(1.197 0.169283 -3.88687e-19)
(1.21387 0.152243 -4.92373e-17)
(1.22825 0.132937 -2.47684e-17)
(1.06544 0.199584 2.07251e-16)
(1.08326 0.201404 -1.02805e-16)
(1.10098 0.200579 1.02028e-16)
(1.11884 0.197178 1.00565e-16)
(1.13698 0.191147 1.02358e-16)
(1.15494 0.182505 9.95174e-17)
(1.17234 0.171332 -4.99521e-17)
(1.18881 0.157744 -3.89014e-19)
(1.20411 0.141913 3.87729e-19)
(1.21724 0.124131 2.47963e-17)
(1.06929 0.190217 -1.03835e-16)
(1.08563 0.19113 -1.02267e-16)
(1.10178 0.189578 -1.01944e-16)
(1.11801 0.185686 -1.01319e-16)
(1.13439 0.17944 -9.99972e-17)
(1.15059 0.17089 9.87678e-17)
(1.16627 0.160133 -4.92022e-17)
(1.18113 0.147285 0)
(1.19498 0.132506 9.94509e-17)
(1.20693 0.116049 0)
(1.0722 0.181203 0)
(1.0872 0.181401 1.02533e-16)
(1.10198 0.179312 -1.01861e-16)
(1.11677 0.175081 7.91249e-19)
(1.13165 0.168727 -1.02361e-16)
(1.1463 0.160321 -1.0037e-16)
(1.16048 0.149971 5.07954e-17)
(1.17391 0.137798 -4.98783e-17)
(1.18647 0.123953 -9.95518e-17)
(1.19733 0.108659 0)
(1.07428 0.172546 -1.03042e-16)
(1.08808 0.172184 0)
(1.10165 0.169703 1.01778e-16)
(1.11519 0.165255 1.02034e-16)
(1.12875 0.15888 -1.89882e-23)
(1.14207 0.150663 9.96198e-17)
(1.15493 0.140721 0)
(1.16712 0.129175 4.99201e-17)
(1.17852 0.116172 5.00209e-17)
(1.18841 0.101913 -2.50754e-17)
(1.07566 0.164249 1.0285e-16)
(1.08837 0.163449 -1.02262e-16)
(1.10086 0.16069 1.01694e-16)
(1.1133 0.15612 -1.00414e-16)
(1.12572 0.149792 2.00001e-16)
(1.13789 0.141801 -9.8869e-17)
(1.14961 0.132267 -7.82442e-19)
(1.1607 0.121313 -3.90327e-19)
(1.17108 0.10908 -4.94873e-17)
(1.1801 0.095752 2.49091e-17)
(1.07644 0.156308 0)
(1.08818 0.155172 1.02128e-16)
(1.09971 0.152223 -1.01611e-16)
(1.11118 0.147603 -7.90362e-19)
(1.12259 0.141374 -9.92143e-17)
(1.13375 0.133637 -7.84949e-19)
(1.14448 0.124511 -7.82914e-19)
(1.15462 0.11412 7.81323e-19)
(1.16411 0.102597 4.99274e-17)
(1.17236 0.0901167 2.49375e-17)
(1.0767 0.148717 1.02865e-16)
(1.08757 0.147326 -3.98414e-19)
(1.09825 0.144257 0)
(1.10886 0.139643 0)
(1.1194 0.133552 7.87417e-19)
(1.12967 0.126086 -5.18239e-17)
(1.13954 0.117367 1.00227e-23)
(1.14885 0.107512 5.04375e-17)
(1.15755 0.0966526 3.90457e-19)
(1.16513 0.0849488 -2.49658e-17)
(1.07653 0.141466 -1.02274e-16)
(1.08662 0.139887 -1.01859e-16)
(1.09654 0.136754 -1.01445e-16)
(1.1064 0.132187 -7.89769e-19)
(1.11616 0.126262 1.01592e-23)
(1.12566 0.119081 5.02705e-17)
(1.13477 0.110761 7.83891e-19)
(1.14336 0.10142 1.36058e-22)
(1.15138 0.0911809 0)
(1.15836 0.0801945 0)
(1.07601 0.134543 -1.02482e-16)
(1.0854 0.132832 2.03848e-16)
(1.09464 0.129676 1.01363e-16)
(1.10383 0.12519 0)
(1.1129 0.119451 -1.00005e-16)
(1.12173 0.11256 4.95019e-17)
(1.13017 0.104633 0)
(1.13813 0.0957819 -5.05224e-17)
(1.14555 0.0861258 -2.46487e-17)
(1.15201 0.0758051 0)
(1.07519 0.127935 1.02292e-16)
(1.08396 0.126135 -1.01988e-16)
(1.0926 0.122992 0)
(1.10119 0.118611 1.00226e-16)
(1.10966 0.113072 1.00793e-16)
(1.11788 0.106473 -1.00609e-16)
(1.12575 0.0989281 -4.94459e-17)
(1.13315 0.0905455 0)
(1.14004 0.0814381 2.50653e-17)
(1.14605 0.0717374 0)
(1.07413 0.121625 1.01704e-16)
(1.08235 0.119774 0)
(1.09045 0.11667 0)
(1.09851 0.112413 -1.00188e-16)
(1.10644 0.107082 -8.29669e-24)
(1.11414 0.100775 4.87492e-17)
(1.12149 0.0936011 5.1047e-17)
(1.1284 0.0856655 -3.92306e-19)
(1.13483 0.0770753 1.96025e-19)
(1.14043 0.0679538 1.95937e-19)
(1.07288 0.115601 -2.03031e-16)
(1.08061 0.113727 1.01325e-16)
(1.08824 0.110684 7.8995e-19)
(1.09582 0.106564 -7.88587e-19)
(1.10328 0.101446 -5.03971e-17)
(1.1105 0.0954267 0)
(1.11739 0.0886121 0)
(1.12387 0.0811028 5.02578e-17)
(1.12989 0.0730006 0)
(1.13515 0.0644214 0)
(1.07148 0.109845 1.01723e-16)
(1.07878 0.107973 -1.01587e-16)
(1.08598 0.105008 7.89305e-19)
(1.09314 0.101034 -1.02477e-16)
(1.10017 0.0961308 5.11849e-17)
(1.10697 0.0903946 0)
(1.11346 0.0839265 -7.86306e-19)
(1.11956 0.0768235 -4.99072e-17)
(1.12522 0.0691822 1.96424e-19)
(1.13017 0.0611115 1.96384e-19)
(1.06998 0.104344 -1.01535e-16)
(1.07688 0.102492 3.94766e-19)
(1.0837 0.0996164 -1.00949e-16)
(1.09048 0.0957954 1.00862e-16)
(1.09714 0.0911082 7.87461e-19)
(1.10357 0.0856484 -7.87079e-19)
(1.1097 0.079514 4.95681e-17)
(1.11545 0.072798 7.86607e-19)
(1.1208 0.0655925 0)
(1.12547 0.0579995 0)
(1.0684 0.0990828 -3.94148e-19)
(1.07495 0.0972666 1.01321e-16)
(1.08143 0.0944891 1.00866e-16)
(1.08787 0.0908249 -1.01611e-16)
(1.09419 0.0863519 5.11855e-17)
(1.10029 0.0811614 0)
(1.1061 0.0753479 -5.03859e-17)
(1.11155 0.0690007 -3.93633e-19)
(1.11661 0.0622073 3.93647e-19)
(1.12104 0.0550636 0)
(1.06676 0.0940469 3.93796e-19)
(1.073 0.0922779 -1.01189e-16)
(1.07918 0.0896055 -1.00784e-16)
(1.08532 0.0861002 1.00786e-16)
(1.09133 0.0818386 -1.00796e-16)
(1.09713 0.0769097 0)
(1.10266 0.0714045 0)
(1.10784 0.0654087 -3.93965e-19)
(1.11264 0.0590055 -2.5022e-17)
(1.11686 0.0522852 2.54205e-17)
(1.0651 0.0892227 1.00187e-16)
(1.07106 0.08751 -1.0027e-16)
(1.07697 0.0849472 1.00701e-16)
(1.08283 0.0816012 -5.11606e-17)
(1.08857 0.0775473 7.87476e-19)
(1.0941 0.072872 0)
(1.09937 0.0676628 -5.04481e-17)
(1.10431 0.062002 -3.94299e-19)
(1.10889 0.0559685 2.56392e-17)
(1.11292 0.0496475 -2.52523e-17)
(1.06343 0.0845973 0)
(1.06914 0.0829475 1.00532e-16)
(1.0748 0.0804971 -1.00619e-16)
(1.08042 0.0773097 5.11411e-17)
(1.08591 0.0734591 4.96111e-17)
(1.09121 0.0690292 0)
(1.09625 0.0641042 4.96905e-17)
(1.10097 0.0587627 3.94637e-19)
(1.10535 0.05308 1.97428e-19)
(1.1092 0.0471362 1.97511e-19)
(1.06176 0.0801582 3.91443e-19)
(1.06725 0.0785761 -3.9219e-19)
(1.07269 0.0762395 1.00537e-16)
(1.07808 0.0732091 7.86483e-19)
(1.08336 0.0695569 -5.03987e-17)
(1.08844 0.0653642 4.96692e-17)
(1.09327 0.0607119 -4.97212e-17)
(1.0978 0.0556751 2.4093e-17)
(1.102 0.0503254 5.92886e-19)
(1.10569 0.0447385 -1.97738e-19)
(1.06011 0.0758936 9.96347e-17)
(1.0654 0.0743825 3.91678e-19)
(1.07064 0.07216 0)
(1.07584 0.0692842 0)
(1.08091 0.0658252 4.38266e-25)
(1.0858 0.0618616 -5.04746e-17)
(1.09044 0.0574709 1.00293e-16)
(1.0948 0.0527251 3.95326e-19)
(1.09883 0.0476919 1.97833e-19)
(1.10239 0.042443 1.28677e-17)
(1.0585 0.0717922 -9.94517e-17)
(1.0636 0.0703541 -3.91167e-19)
(1.06866 0.0682452 -5.0186e-17)
(1.07368 0.065521 0)
(1.07857 0.0622499 5.03989e-17)
(1.08328 0.0585073 0)
(1.08776 0.0543678 -4.97825e-17)
(1.09196 0.0498999 -2.65076e-17)
(1.09585 0.0451681 3.96068e-19)
(1.09928 0.0402397 1.46384e-23)
(1.05692 0.0678433 -1.00048e-16)
(1.06186 0.0664794 3.90657e-19)
(1.06676 0.0644828 5.0145e-17)
(1.07161 0.061907 -7.8558e-19)
(1.07634 0.058818 7.87487e-19)
(1.0809 0.0552888 0)
(1.08523 0.0513904 -7.90684e-19)
(1.08928 0.0471883 3.95975e-19)
(1.09303 0.0427435 1.98238e-19)
(1.09636 0.0381197 -1.25005e-17)
(1.0554 0.064037 9.90871e-17)
(1.06018 0.0627474 3.90147e-19)
(1.06493 0.0608614 -7.82871e-19)
(1.06964 0.0584303 1.57056e-18)
(1.07422 0.0555181 -7.87487e-19)
(1.07863 0.0521946 0)
(1.08282 0.0485278 -2.53176e-17)
(1.08675 0.04458 0)
(1.09038 0.0404091 0)
(1.09361 0.0360749 1.27135e-17)
(1.05393 0.0603638 4.96467e-17)
(1.05857 0.059148 0)
(1.06319 0.0573704 0)
(1.06776 0.0550803 -7.84976e-19)
(1.07221 0.0523392 -4.96115e-17)
(1.07649 0.0492142 0)
(1.08056 0.0457701 2.61249e-17)
(1.08437 0.042066 -1.18993e-18)
(1.08789 0.0381565 3.97289e-19)
(1.09103 0.0340982 -1.27282e-17)
(1.05251 0.0568145 -9.94988e-17)
(1.05704 0.0556717 3.89132e-19)
(1.06153 0.0540001 7.81589e-19)
(1.06598 0.051847 -5.17886e-17)
(1.07031 0.0492717 1.02373e-16)
(1.07447 0.0463382 -7.89987e-19)
(1.07842 0.0431082 2.53488e-17)
(1.08213 0.0396377 -3.96979e-19)
(1.08556 0.0359783 1.9885e-19)
(1.08861 0.0321833 1.99109e-19)
(1.05116 0.0533806 4.90788e-17)
(1.05557 0.0523095 3.88625e-19)
(1.05996 0.0507413 0)
(1.06429 0.0487213 4.94155e-17)
(1.06851 0.0463065 -4.96114e-17)
(1.07257 0.0435579 2.52879e-17)
(1.07642 0.0405339 6.80969e-24)
(1.08002 0.0372877 -3.97316e-19)
(1.08336 0.0338678 3.98107e-19)
(1.08635 0.0303242 0)
(1.04987 0.0500541 -3.8574e-19)
(1.05418 0.0490531 3.8812e-19)
(1.05847 0.0475855 0)
(1.0627 0.0456947 -5.01805e-17)
(1.06682 0.0434353 7.87479e-19)
(1.07078 0.0408652 -5.13832e-17)
(1.07453 0.0380398 -2.53801e-17)
(1.07805 0.0350091 -2.58476e-17)
(1.08131 0.0318189 1.99259e-19)
(1.08423 0.0285159 1.99569e-19)
(1.04865 0.0468273 -4.96698e-17)
(1.05287 0.0458946 5.00022e-17)
(1.05706 0.0445247 0)
(1.0612 0.0427594 5.09448e-17)
(1.06523 0.0406505 -7.87481e-19)
(1.0691 0.0382529 2.53048e-17)
(1.07277 0.0356189 0)
(1.07621 0.0327956 2.50736e-17)
(1.0794 0.0298259 5.9839e-19)
(1.08226 0.0267536 -1.99801e-19)
(1.0475 0.0436929 4.88107e-17)
(1.05163 0.0428265 3.87086e-19)
(1.05574 0.0415517 7.79029e-19)
(1.0598 0.039908 -7.83465e-19)
(1.06374 0.0379449 0)
(1.06753 0.0357141 2.53132e-17)
(1.07113 0.0332649 -2.62056e-17)
(1.07449 0.0306415 2.58916e-17)
(1.07761 0.0278839 1.9967e-19)
(1.08042 0.025033 1.30021e-17)
(1.04642 0.0406438 -4.91054e-17)
(1.05047 0.0398418 -4.94858e-17)
(1.05451 0.0386592 0)
(1.05848 0.0371337 0)
(1.06235 0.0353119 0)
(1.06607 0.0332427 -5.06431e-17)
(1.06959 0.0309721 7.94593e-19)
(1.0729 0.0285414 -2.67109e-17)
(1.07596 0.0259881 3.99751e-19)
(1.07871 0.0233501 -1.28169e-17)
(1.0454 0.0376736 -3.82908e-19)
(1.04939 0.036934 3.86107e-19)
(1.05336 0.0358409 -7.77752e-19)
(1.05726 0.0344301 7.82856e-19)
(1.06106 0.0327454 7.87469e-19)
(1.06471 0.0308327 -7.91564e-19)
(1.06817 0.0287349 2.46478e-17)
(1.07142 0.0264906 3.99013e-19)
(1.07442 0.0241344 4.00165e-19)
(1.07713 0.0217015 0)
(1.04446 0.0347758 4.85448e-17)
(1.04839 0.0340966 3.85606e-19)
(1.05229 0.0330904 2.48677e-17)
(1.05613 0.031791 7.82548e-19)
(1.05987 0.0302396 -3.33405e-24)
(1.06346 0.0284787 -7.91826e-19)
(1.06686 0.0265485 0)
(1.07005 0.0244845 0)
(1.07301 0.0223188 1.28185e-17)
(1.07568 0.0200838 0)
(1.04359 0.0319444 3.81547e-19)
(1.04746 0.0313236 -3.85106e-19)
(1.0513 0.0304019 -2.56238e-17)
(1.05509 0.0292109 3.20381e-24)
(1.05877 0.027789 7.87465e-19)
(1.0623 0.0261758 2.53467e-17)
(1.06565 0.0244081 2.54743e-17)
(1.0688 0.0225189 -3.9969e-19)
(1.07171 0.0205376 -1.24308e-17)
(1.07434 0.018494 0)
(1.04279 0.0291736 -3.80856e-19)
(1.0466 0.0286094 3.84607e-19)
(1.0504 0.0277698 -2.48269e-17)
(1.05413 0.0266844 0)
(1.05776 0.0253886 0)
(1.06124 0.023919 0)
(1.06455 0.0223094 -2.549e-17)
(1.06765 0.02059 -1.3201e-17)
(1.07052 0.0187875 4.01409e-19)
(1.07312 0.0169293 0)
(1.04205 0.0264578 -3.80166e-19)
(1.04583 0.0259484 3.84109e-19)
(1.04957 0.0251888 2.40313e-17)
(1.05326 0.0242063 3.05999e-24)
(1.05684 0.0230336 7.87455e-19)
(1.06028 0.021704 0)
(1.06355 0.0202483 7.97052e-19)
(1.06661 0.018694 1.16108e-17)
(1.06944 0.0170654 -1.24565e-17)
(1.07201 0.0153871 0)
(1.04139 0.0237916 0)
(1.04512 0.0233353 2.45511e-17)
(1.04883 0.0226537 2.47861e-17)
(1.05248 0.0217718 -7.81327e-19)
(1.05602 0.0207193 7.8745e-19)
(1.05942 0.0195264 0)
(1.06264 0.0182209 1.35583e-17)
(1.06567 0.0168276 -1.20214e-18)
(1.06847 0.0153682 1.30728e-17)
(1.07101 0.0138649 2.01669e-19)
(1.0408 0.0211697 -3.78791e-19)
(1.04449 0.0207651 -2.41363e-17)
(1.04816 0.0201597 -2.39919e-17)
(1.05177 0.0193762 -2.9448e-24)
(1.05528 0.0184414 -7.87444e-19)
(1.05864 0.0173822 0)
(1.06184 0.0162236 -1.35667e-17)
(1.06483 0.0149875 4.01059e-19)
(1.0676 0.0136933 6.03989e-19)
(1.07012 0.0123605 -2.01905e-19)
(1.04027 0.0185873 3.78107e-19)
(1.04393 0.0182329 -3.82621e-19)
(1.04758 0.0177021 0)
(1.05115 0.0170152 0)
(1.05463 0.0161957 0)
(1.05796 0.0152677 -1.26943e-17)
(1.06112 0.0142529 -1.27765e-17)
(1.06409 0.0131706 -4.01399e-19)
(1.06683 0.0120378 2.0154e-19)
(1.06933 0.0108717 2.02142e-19)
(1.03981 0.0160392 -3.77425e-19)
(1.04345 0.0157339 3.82127e-19)
(1.04707 0.0152764 1.31352e-17)
(1.05062 0.0146843 -1.3267e-17)
(1.05406 0.0139783 0)
(1.05737 0.013179 2.53969e-17)
(1.0605 0.0123054 1.27844e-17)
(1.06344 0.011374 6.02615e-18)
(1.06617 0.0103994 -6.25421e-18)
(1.06865 0.00939641 2.02378e-19)
(1.03942 0.0135208 -1.24326e-17)
(1.04304 0.0132636 1.25939e-17)
(1.04663 0.0128781 -1.23524e-17)
(1.05016 0.0123795 2.41832e-17)
(1.05358 0.0117852 7.87423e-19)
(1.05686 0.0111128 -2.54053e-17)
(1.05998 0.010378 6.39615e-18)
(1.06289 0.00959486 -6.83548e-18)
(1.0656 0.00877562 6.8666e-18)
(1.06806 0.00793262 0)
(1.03909 0.0110274 1.24102e-17)
(1.0427 0.0108175 -3.81142e-19)
(1.04627 0.0105031 -7.71389e-19)
(1.04978 0.0100968 -1.16969e-17)
(1.05318 0.00961283 0)
(1.05644 0.00906541 1.27068e-17)
(1.05954 0.0084675 -7.20011e-18)
(1.06244 0.00783038 -5.23161e-18)
(1.06513 0.00716399 -6.06509e-19)
(1.06758 0.00647838 2.02854e-19)
(1.03883 0.00855445 -1.20125e-17)
(1.04242 0.00839122 -1.35236e-24)
(1.04598 0.0081473 7.70755e-19)
(1.04948 0.00783237 -1.55897e-18)
(1.05286 0.0074575 1.57481e-18)
(1.05611 0.00703368 -7.14993e-18)
(1.05919 0.0065709 5.60355e-18)
(1.06208 0.00607786 3.62499e-18)
(1.06475 0.00556223 3.84523e-18)
(1.06719 0.00503175 -2.03093e-19)
(1.03864 0.00609748 1.16162e-17)
(1.04222 0.00598053 -1.17849e-17)
(1.04577 0.00580649 0)
(1.04925 0.00558219 0)
(1.05263 0.00531544 7.87396e-19)
(1.05586 0.00501399 5.56288e-18)
(1.05893 0.00468493 -6.40801e-18)
(1.0618 0.00433442 2.82185e-18)
(1.06447 0.00396786 -3.03888e-18)
(1.0669 0.00359074 2.03332e-19)
(1.03851 0.00365204 3.74042e-19)
(1.04209 0.00358106 -3.79669e-19)
(1.04563 0.00347643 3.07796e-18)
(1.0491 0.00334207 -7.78869e-19)
(1.05247 0.00318256 3.14955e-18)
(1.0557 0.0030025 -2.38487e-18)
(1.05876 0.00280607 0)
(1.06162 0.00259691 -4.03467e-19)
(1.06428 0.00237822 4.05608e-19)
(1.06671 0.00215324 -8.14284e-19)
(1.03845 0.00121496 -3.74401e-19)
(1.04202 0.00119057 3.80259e-19)
(1.04556 0.00115537 -3.85554e-18)
(1.04903 0.00111055 7.80904e-19)
(1.05239 0.00105759 -1.5796e-18)
(1.05561 0.000997956 1.59543e-18)
(1.05867 0.000933024 0)
(1.06153 0.000863966 -4.05123e-19)
(1.06419 0.000791815 2.03683e-19)
(1.06661 0.000717601 1.02243e-18)
(0.982696 0.00570044 0)
(0.996884 0.0152064 0)
(0.999778 0.0223458 0)
(0.997916 0.0297362 0)
(0.996738 0.0378548 0)
(0.995981 0.0464155 0)
(0.995096 0.0554045 0)
(0.994092 0.0649505 0)
(0.993062 0.0751553 0)
(0.992061 0.0860906 0)
(0.991146 0.0978173 0)
(0.990396 0.110386 0)
(0.989914 0.123836 0)
(0.989831 0.138193 0)
(0.990313 0.153477 0)
(0.991571 0.16969 0)
(0.993867 0.186804 0)
(0.997586 0.204715 0)
(1.00328 0.223082 0)
(1.01085 0.240569 0)
(0.985515 0.0062227 0)
(0.997792 0.0153156 0)
(0.999939 0.0225554 0)
(0.998435 0.0301832 0)
(0.997662 0.0383876 0)
(0.997206 0.0469794 0)
(0.996661 0.0559924 0)
(0.996074 0.0655383 0)
(0.995529 0.0757025 0)
(0.99508 0.086547 0)
(0.994788 0.0981201 0)
(0.994737 0.110455 0)
(0.995035 0.12357 0)
(0.995815 0.137466 0)
(0.997249 0.152128 0)
(0.999547 0.167518 0)
(1.00298 0.183552 0)
(1.00791 0.200014 0)
(1.01479 0.216322 0)
(1.02299 0.230881 0)
(0.988415 0.00654498 0)
(0.998426 0.0153656 0)
(1.00011 0.022662 0)
(0.998985 0.0304484 0)
(0.998529 0.0386936 0)
(0.998345 0.0472769 0)
(0.998124 0.0562694 0)
(0.997928 0.0657673 0)
(0.997832 0.0758409 0)
(0.997889 0.0865419 0)
(0.998164 0.0979062 0)
(0.998741 0.109951 0)
(0.999728 0.122671 0)
(1.00126 0.136044 0)
(1.00349 0.150023 0)
(1.00663 0.164531 0)
(1.01092 0.179435 0)
(1.01667 0.194463 0)
(1.02422 0.208973 0)
(1.03299 0.221491 0)
(0.991352 0.00668181 0)
(0.998936 0.0154153 0)
(1.00026 0.0227211 0)
(0.999516 0.0305639 0)
(0.999336 0.0388113 0)
(0.9994 0.047363 0)
(0.999485 0.0563039 0)
(0.999651 0.0657199 0)
(0.999966 0.0756704 0)
(1.00048 0.0861972 0)
(1.00127 0.0973239 0)
(1.0024 0.109052 0)
(1.004 0.121359 0)
(1.00617 0.134199 0)
(1.00907 0.147499 0)
(1.01289 0.161154 0)
(1.01783 0.175001 0)
(1.02414 0.188752 0)
(1.0321 0.20179 0)
(1.04123 0.212743 0)
(0.994299 0.00671997 0)
(0.999384 0.0154053 0)
(1.00037 0.0226857 0)
(1.00001 0.0305215 0)
(1.00008 0.0387338 0)
(1.00037 0.0472222 0)
(1.00073 0.056075 0)
(1.00123 0.0653712 0)
(1.00192 0.075161 0)
(1.00285 0.0854768 0)
(1.00409 0.0963309 0)
(1.00572 0.107711 0)