/*--------------------------------*- C++ -*----------------------------------*\
  =========                 |
  \\      /  F ield         | OpenFOAM: The Open Source CFD Toolbox
   \\    /   O peration     | Website:  https://openfoam.org
    \\  /    A nd           | Version:  6
     \\/     M anipulation  |
\*---------------------------------------------------------------------------*/
FoamFile
{
    version     2.0;
    format      ascii;
    class       volScalarField;
    location    "1.25";
    object      p;
}
// * * * * * * * * * * * * * * * * * * * * * * * * * * * * * * * * * * * * * //

dimensions      [0 2 -2 0 0 0 0];

internalField   nonuniform List<scalar> 
5600
(
994.455
995.965
997.114
997.13
997.003
996.985
997.004
997.015
997.021
997.028
997.036
997.045
997.054
997.064
997.075
997.088
997.101
997.116
997.133
997.151
994.389
995.993
997.136
997.13
997
996.986
997.004
997.015
997.021
997.028
997.035
997.044
997.053
997.063
997.075
997.087
997.1
997.115
997.132
997.149
994.352
996.003
997.146
997.13
996.999
996.985
997.004
997.014
997.019
997.026
997.033
997.041
997.05
997.06
997.071
997.083
997.096
997.11
997.125
997.142
994.312
996.007
997.155
997.13
996.996
996.983
997.002
997.011
997.016
997.022
997.029
997.037
997.045
997.054
997.064
997.075
997.087
997.099
997.113
997.128
994.263
996.012
997.163
997.129
996.994
996.981
996.999
997.008
997.012
997.017
997.023
997.03
997.037
997.045
997.054
997.064
997.074
997.085
997.096
997.108
994.208
996.017
997.173
997.128
996.989
996.977
996.995
997.002
997.006
997.01
997.015
997.021
997.027
997.034
997.042
997.049
997.058
997.066
997.075
997.083
994.148
996.024
997.184
997.126
996.984
996.973
996.99
996.996
996.998
997.001
997.006
997.01
997.015
997.021
997.027
997.032
997.038
997.044
997.049
997.054
994.084
996.036
997.197
997.123
996.978
996.967
996.983
996.988
996.989
996.991
996.995
996.998
997.002
997.006
997.009
997.013
997.016
997.019
997.021
997.021
994.009
996.056
997.213
997.116
996.968
996.96
996.976
996.979
996.979
996.98
996.982
996.985
996.987
996.989
996.991
996.993
996.993
996.993
996.991
996.987
993.858
996.116
997.237
997.096
996.954
996.953
996.967
996.969
996.968
996.968
996.969
996.971
996.971
996.972
996.972
996.971
996.969
996.966
996.96
996.952
997.175
997.206
997.241
997.282
997.328
997.382
997.442
997.508
997.58
997.753
997.172
997.201
997.236
997.276
997.321
997.372
997.43
997.494
997.562
997.735
997.162
997.19
997.223
997.261
997.304
997.353
997.407
997.466
997.529
997.696
997.144
997.17
997.201
997.237
997.276
997.321
997.37
997.422
997.479
997.638
997.12
997.142
997.171
997.203
997.239
997.278
997.32
997.366
997.415
997.562
997.089
997.108
997.134
997.162
997.192
997.225
997.261
997.297
997.337
997.47
997.054
997.069
997.091
997.115
997.14
997.166
997.193
997.22
997.248
997.364
997.014
997.025
997.044
997.063
997.082
997.101
997.119
997.136
997.153
997.248
996.972
996.98
996.995
997.009
997.022
997.033
997.043
997.051
997.056
997.127
996.929
996.935
996.946
996.954
996.961
996.965
996.965
996.962
996.953
997
996.892
996.9
996.905
996.906
996.903
996.894
996.876
996.849
996.82
996.854
996.852
996.856
996.854
996.849
996.838
996.819
996.79
996.752
996.711
996.724
996.809
996.808
996.8
996.788
996.77
996.743
996.706
996.66
996.611
996.601
996.763
996.757
996.744
996.726
996.701
996.667
996.622
996.569
996.514
996.484
996.717
996.706
996.688
996.664
996.633
996.593
996.541
996.482
996.422
996.374
996.67
996.655
996.632
996.604
996.568
996.522
996.466
996.402
996.339
996.274
996.625
996.605
996.579
996.546
996.506
996.456
996.397
996.331
996.266
996.187
996.581
996.558
996.529
996.493
996.45
996.398
996.337
996.271
996.204
996.113
996.541
996.515
996.484
996.446
996.401
996.348
996.287
996.221
996.155
996.052
996.504
996.477
996.444
996.405
996.36
996.307
996.246
996.18
996.114
996.003
996.887
996.846
996.804
996.761
996.717
996.674
996.632
996.592
996.556
996.523
996.874
996.834
996.794
996.755
996.715
996.675
996.637
996.6
996.567
996.536
996.857
996.82
996.783
996.747
996.71
996.674
996.64
996.607
996.576
996.548
996.842
996.807
996.773
996.74
996.707
996.674
996.642
996.612
996.584
996.558
996.829
996.797
996.765
996.734
996.704
996.674
996.645
996.618
996.592
996.567
996.817
996.787
996.758
996.73
996.702
996.674
996.648
996.622
996.598
996.575
996.806
996.778
996.751
996.725
996.7
996.674
996.65
996.626
996.604
996.582
996.797
996.771
996.746
996.722
996.698
996.674
996.652
996.63
996.609
996.589
996.788
996.764
996.741
996.718
996.696
996.675
996.653
996.633
996.613
996.594
996.78
996.758
996.736
996.716
996.695
996.675
996.655
996.636
996.618
996.6
996.773
996.752
996.732
996.713
996.694
996.675
996.656
996.638
996.621
996.604
996.767
996.748
996.729
996.711
996.693
996.675
996.658
996.641
996.625
996.609
996.761
996.743
996.726
996.709
996.692
996.675
996.659
996.643
996.628
996.612
996.756
996.739
996.723
996.707
996.691
996.675
996.66
996.645
996.63
996.616
996.751
996.735
996.72
996.705
996.69
996.675
996.661
996.647
996.633
996.619
996.747
996.732
996.718
996.703
996.689
996.675
996.662
996.648
996.635
996.622
996.743
996.729
996.715
996.702
996.689
996.675
996.662
996.649
996.637
996.625
996.739
996.726
996.713
996.701
996.688
996.675
996.663
996.651
996.639
996.627
996.736
996.724
996.711
996.699
996.687
996.675
996.663
996.652
996.641
996.629
996.733
996.721
996.71
996.698
996.687
996.675
996.664
996.653
996.642
996.631
996.73
996.719
996.708
996.697
996.686
996.675
996.664
996.654
996.643
996.633
996.728
996.717
996.706
996.696
996.686
996.675
996.665
996.655
996.645
996.635
996.725
996.715
996.705
996.695
996.685
996.675
996.665
996.655
996.646
996.636
996.723
996.713
996.704
996.694
996.685
996.675
996.665
996.656
996.647
996.638
996.721
996.711
996.702
996.693
996.684
996.675
996.666
996.657
996.648
996.639
996.719
996.71
996.701
996.692
996.684
996.675
996.666
996.657
996.649
996.64
996.717
996.708
996.7
996.692
996.683
996.675
996.666
996.658
996.649
996.641
996.715
996.707
996.699
996.691
996.683
996.675
996.666
996.658
996.65
996.642
996.714
996.706
996.698
996.69
996.682
996.674
996.666
996.659
996.651
996.643
996.712
996.705
996.697
996.69
996.682
996.674
996.667
996.659
996.651
996.644
996.711
996.704
996.696
996.689
996.682
996.674
996.667
996.659
996.652
996.644
996.709
996.702
996.695
996.688
996.681
996.674
996.667
996.659
996.652
996.645
996.708
996.701
996.695
996.688
996.681
996.674
996.667
996.66
996.653
996.646
996.707
996.701
996.694
996.687
996.681
996.674
996.667
996.66
996.653
996.646
996.706
996.7
996.693
996.687
996.68
996.674
996.667
996.66
996.653
996.647
996.705
996.699
996.693
996.686
996.68
996.673
996.667
996.66
996.654
996.647
996.704
996.698
996.692
996.686
996.68
996.673
996.667
996.66
996.654
996.648
996.703
996.698
996.692
996.686
996.679
996.673
996.667
996.661
996.654
996.648
996.703
996.697
996.691
996.685
996.679
996.673
996.667
996.661
996.654
996.648
996.702
996.696
996.691
996.685
996.679
996.673
996.667
996.661
996.655
996.649
996.701
996.696
996.69
996.685
996.679
996.673
996.667
996.661
996.655
996.649
996.701
996.695
996.69
996.684
996.679
996.673
996.667
996.661
996.655
996.649
996.7
996.695
996.69
996.684
996.678
996.673
996.667
996.661
996.655
996.649
996.7
996.695
996.689
996.684
996.678
996.673
996.667
996.661
996.655
996.649
996.7
996.694
996.689
996.684
996.678
996.672
996.667
996.661
996.655
996.65
996.699
996.694
996.689
996.684
996.678
996.672
996.667
996.661
996.655
996.65
996.699
996.694
996.689
996.683
996.678
996.672
996.667
996.661
996.655
996.65
996.699
996.694
996.689
996.683
996.678
996.672
996.667
996.661
996.655
996.65
996.699
996.694
996.689
996.683
996.678
996.672
996.667
996.661
996.655
996.65
996.699
996.694
996.688
996.683
996.678
996.672
996.667
996.661
996.655
996.65
993.542
996.285
997.286
997.053
996.934
996.947
996.958
996.956
996.954
996.954
996.953
996.953
996.951
996.95
996.947
996.944
996.938
996.931
996.92
996.902
993.402
996.344
997.289
997.026
996.923
996.942
996.95
996.947
996.945
996.944
996.942
996.941
996.939
996.936
996.933
996.928
996.921
996.912
996.901
996.884
993.347
996.346
997.278
997.009
996.914
996.934
996.942
996.938
996.935
996.934
996.932
996.93
996.927
996.924
996.92
996.914
996.907
996.897
996.886
996.87
993.316
996.339
997.269
996.998
996.904
996.926
996.933
996.929
996.926
996.924
996.922
996.919
996.916
996.912
996.907
996.901
996.893
996.883
996.872
996.857
993.293
996.331
997.261
996.988
996.895
996.917
996.924
996.92
996.917
996.915
996.912
996.909
996.905
996.9
996.895
996.888
996.88
996.87
996.858
996.844
993.274
996.323
997.253
996.978
996.886
996.908
996.915
996.911
996.908
996.905
996.902
996.898
996.894
996.889
996.883
996.876
996.868
996.858
996.846
996.832
993.257
996.314
997.246
996.97
996.877
996.9
996.907
996.902
996.899
996.896
996.893
996.889
996.884
996.879
996.872
996.865
996.857
996.847
996.835
996.822
993.239
996.305
997.239
996.961
996.869
996.891
996.898
996.894
996.89
996.887
996.883
996.879
996.874
996.869
996.862
996.855
996.846
996.836
996.825
996.812
993.222
996.296
997.232
996.953
996.86
996.883
996.89
996.885
996.882
996.878
996.875
996.87
996.865
996.859
996.853
996.845
996.837
996.827
996.816
996.803
993.205
996.287
997.225
996.946
996.852
996.875
996.882
996.877
996.873
996.87
996.866
996.862
996.856
996.851
996.844
996.836
996.828
996.818
996.808
996.795
993.189
996.278
997.218
996.938
996.845
996.868
996.874
996.869
996.865
996.862
996.858
996.853
996.848
996.842
996.836
996.828
996.82
996.81
996.8
996.788
993.173
996.27
997.212
996.931
996.837
996.86
996.867
996.862
996.858
996.854
996.85
996.846
996.84
996.834
996.828
996.82
996.812
996.803
996.793
996.781
993.157
996.262
997.206
996.924
996.83
996.853
996.86
996.855
996.851
996.847
996.843
996.838
996.833
996.827
996.82
996.813
996.805
996.796
996.786
996.775
993.141
996.254
997.2
996.917
996.823
996.846
996.853
996.848
996.843
996.84
996.836
996.831
996.826
996.82
996.813
996.806
996.798
996.789
996.78
996.77
993.126
996.247
997.194
996.911
996.816
996.839
996.846
996.841
996.837
996.833
996.829
996.824
996.819
996.813
996.807
996.8
996.792
996.784
996.774
996.765
993.112
996.239
997.188
996.905
996.81
996.833
996.84
996.835
996.83
996.827
996.823
996.818
996.813
996.807
996.801
996.794
996.786
996.778
996.769
996.76
993.098
996.232
997.183
996.899
996.804
996.827
996.833
996.828
996.824
996.821
996.817
996.812
996.807
996.801
996.795
996.788
996.781
996.773
996.764
996.755
993.085
996.225
997.178
996.893
996.798
996.821
996.828
996.822
996.818
996.815
996.811
996.806
996.801
996.796
996.79
996.783
996.776
996.768
996.76
996.751
993.072
996.219
997.173
996.887
996.792
996.815
996.822
996.817
996.813
996.809
996.805
996.801
996.796
996.79
996.784
996.778
996.771
996.764
996.756
996.747
993.059
996.212
997.168
996.882
996.786
996.81
996.817
996.811
996.807
996.804
996.8
996.796
996.791
996.785
996.78
996.773
996.767
996.76
996.752
996.744
993.047
996.206
997.163
996.877
996.781
996.805
996.811
996.806
996.802
996.799
996.795
996.791
996.786
996.781
996.775
996.769
996.763
996.756
996.748
996.741
993.036
996.201
997.159
996.872
996.776
996.8
996.806
996.801
996.797
996.794
996.79
996.786
996.781
996.776
996.771
996.765
996.759
996.752
996.745
996.738
993.025
996.195
997.155
996.867
996.771
996.795
996.802
996.797
996.793
996.79
996.786
996.782
996.777
996.772
996.767
996.761
996.755
996.749
996.742
996.735
993.015
996.19
997.151
996.863
996.767
996.79
996.797
996.792
996.788
996.785
996.782
996.777
996.773
996.768
996.763
996.758
996.752
996.745
996.739
996.732
993.005
996.185
997.147
996.858
996.762
996.786
996.793
996.788
996.784
996.781
996.778
996.774
996.769
996.765
996.76
996.754
996.748
996.742
996.736
996.73
992.996
996.18
997.143
996.854
996.758
996.782
996.789
996.784
996.78
996.777
996.774
996.77
996.766
996.761
996.756
996.751
996.746
996.74
996.734
996.727
992.987
996.175
997.14
996.85
996.754
996.778
996.785
996.78
996.777
996.774
996.77
996.766
996.762
996.758
996.753
996.748
996.743
996.737
996.731
996.725
992.978
996.171
997.136
996.847
996.751
996.774
996.782
996.777
996.773
996.77
996.767
996.763
996.759
996.755
996.75
996.745
996.74
996.735
996.729
996.723
992.97
996.167
997.133
996.843
996.747
996.771
996.778
996.773
996.77
996.767
996.764
996.76
996.756
996.752
996.747
996.743
996.738
996.732
996.727
996.721
992.963
996.163
997.13
996.84
996.744
996.768
996.775
996.77
996.767
996.764
996.761
996.757
996.753
996.749
996.745
996.74
996.735
996.73
996.725
996.719
992.956
996.159
997.128
996.837
996.741
996.765
996.772
996.767
996.764
996.761
996.758
996.754
996.751
996.747
996.742
996.738
996.733
996.728
996.723
996.718
992.949
996.156
997.125
996.834
996.738
996.762
996.769
996.764
996.761
996.758
996.755
996.752
996.748
996.744
996.74
996.736
996.731
996.726
996.721
996.716
992.943
996.153
997.122
996.831
996.735
996.759
996.766
996.762
996.758
996.756
996.753
996.75
996.746
996.742
996.738
996.734
996.729
996.725
996.72
996.715
992.937
996.15
997.12
996.829
996.732
996.757
996.764
996.759
996.756
996.753
996.751
996.747
996.744
996.74
996.736
996.732
996.728
996.723
996.718
996.713
992.931
996.147
997.118
996.827
996.73
996.754
996.762
996.757
996.754
996.751
996.748
996.745
996.742
996.738
996.734
996.73
996.726
996.722
996.717
996.712
992.926
996.144
997.116
996.824
996.728
996.752
996.759
996.755
996.752
996.749
996.746
996.743
996.74
996.736
996.733
996.729
996.725
996.72
996.716
996.711
992.921
996.142
997.114
996.822
996.726
996.75
996.758
996.753
996.75
996.747
996.745
996.742
996.738
996.735
996.731
996.727
996.723
996.719
996.714
996.71
992.917
996.14
997.113
996.82
996.724
996.748
996.756
996.751
996.748
996.746
996.743
996.74
996.737
996.733
996.73
996.726
996.722
996.718
996.713
996.709
992.913
996.138
997.111
996.819
996.722
996.746
996.754
996.75
996.746
996.744
996.741
996.739
996.735
996.732
996.728
996.725
996.721
996.717
996.712
996.708
992.909
996.136
997.11
996.817
996.72
996.745
996.752
996.748
996.745
996.743
996.74
996.737
996.734
996.731
996.727
996.724
996.72
996.716
996.711
996.707
992.905
996.134
997.108
996.816
996.719
996.743
996.751
996.747
996.744
996.741
996.739
996.736
996.733
996.73
996.726
996.723
996.719
996.715
996.711
996.706
992.902
996.132
997.107
996.814
996.718
996.742
996.75
996.746
996.742
996.74
996.738
996.735
996.732
996.729
996.725
996.722
996.718
996.714
996.71
996.706
992.899
996.131
997.106
996.813
996.717
996.741
996.749
996.745
996.741
996.739
996.737
996.734
996.731
996.728
996.724
996.721
996.717
996.713
996.709
996.705
992.897
996.13
997.105
996.812
996.716
996.74
996.748
996.744
996.741
996.738
996.736
996.733
996.73
996.727
996.724
996.72
996.717
996.713
996.709
996.705
992.895
996.128
997.104
996.812
996.715
996.739
996.747
996.743
996.74
996.738
996.735
996.732
996.729
996.726
996.723
996.72
996.716
996.712
996.708
996.704
992.894
996.127
997.104
996.812
996.714
996.739
996.747
996.742
996.739
996.737
996.735
996.732
996.729
996.726
996.723
996.719
996.716
996.712
996.708
996.704
992.895
996.125
997.103
996.812
996.714
996.738
996.746
996.742
996.739
996.737
996.734
996.731
996.728
996.725
996.722
996.719
996.715
996.711
996.708
996.704
992.9
996.122
997.104
996.813
996.714
996.738
996.746
996.741
996.738
996.736
996.734
996.731
996.728
996.725
996.722
996.718
996.715
996.711
996.707
996.703
992.926
996.107
997.103
996.817
996.714
996.737
996.745
996.741
996.738
996.736
996.734
996.731
996.728
996.725
996.722
996.718
996.715
996.711
996.707
996.703
993.017
996.047
997.091
996.826
996.715
996.735
996.745
996.741
996.738
996.736
996.733
996.731
996.728
996.725
996.722
996.718
996.715
996.711
996.707
996.703
996.354
996.318
996.285
996.256
996.225
996.192
996.157
996.119
996.081
996.012
996.359
996.323
996.289
996.26
996.23
996.198
996.165
996.129
996.094
996.033
996.353
996.322
996.291
996.265
996.236
996.207
996.175
996.142
996.109
996.056
996.346
996.319
996.291
996.267
996.241
996.213
996.184
996.153
996.123
996.08
996.34
996.317
996.292
996.269
996.245
996.219
996.192
996.164
996.137
996.102
996.335
996.315
996.293
996.271
996.248
996.224
996.199
996.173
996.149
996.123
996.331
996.314
996.294
996.274
996.252
996.229
996.205
996.182
996.16
996.141
996.329
996.313
996.295
996.276
996.255
996.233
996.211
996.189
996.169
996.155
996.328
996.313
996.297
996.278
996.258
996.237
996.215
996.193
996.175
996.165
996.328
996.314
996.298
996.28
996.26
996.238
996.217
996.196
996.178
996.169
996.338
996.347
996.356
996.365
996.374
996.383
996.391
996.399
996.407
996.415
996.422
996.429
996.436
996.443
996.45
996.456
996.462
996.467
996.473
996.478
996.483
996.488
996.493
996.497
996.501
996.505
996.509
996.513
996.517
996.52
996.523
996.527
996.53
996.533
996.536
996.539
996.542
996.544
996.547
996.55
996.553
996.555
996.558
996.561
996.564
996.567
996.57
996.574
996.577
996.581
996.335
996.343
996.353
996.363
996.372
996.38
996.389
996.397
996.405
996.413
996.421
996.428
996.435
996.442
996.448
996.455
996.461
996.466
996.472
996.477
996.482
996.487
996.492
996.496
996.501
996.505
996.509
996.513
996.516
996.52
996.523
996.526
996.529
996.533
996.536
996.538
996.541
996.544
996.547
996.55
996.552
996.555
996.558
996.561
996.564
996.567
996.57
996.573
996.577
996.58
996.33
996.339
996.349
996.359
996.369
996.378
996.387
996.395
996.403
996.411
996.419
996.426
996.434
996.44
996.447
996.453
996.46
996.465
996.471
996.476
996.481
996.486
996.491
996.496
996.5
996.504
996.508
996.512
996.516
996.519
996.523
996.526
996.529
996.532
996.535
996.538
996.541
996.544
996.546
996.549
996.552
996.554
996.557
996.56
996.563
996.566
996.569
996.572
996.575
996.578
996.325
996.333
996.345
996.356
996.366
996.375
996.384
996.393
996.401
996.409
996.417
996.425
996.432
996.439
996.446
996.452
996.458
996.464
996.47
996.475
996.481
996.486
996.49
996.495
996.499
996.503
996.507
996.511
996.515
996.519
996.522
996.525
996.528
996.531
996.534
996.537
996.54
996.543
996.546
996.548
996.551
996.554
996.556
996.559
996.561
996.564
996.567
996.57
996.573
996.576
996.32
996.327
996.341
996.352
996.362
996.372
996.382
996.391
996.399
996.408
996.416
996.423
996.431
996.438
996.445
996.451
996.457
996.463
996.469
996.474
996.48
996.485
996.489
996.494
996.498
996.503
996.507
996.511
996.514
996.518
996.521
996.525
996.528
996.531
996.534
996.537
996.539
996.542
996.545
996.547
996.55
996.552
996.555
996.557
996.56
996.562
996.565
996.568
996.57
996.573
996.315
996.321
996.336
996.349
996.359
996.37
996.379
996.389
996.398
996.406
996.414
996.422
996.429
996.437
996.443
996.45
996.456
996.462
996.468
996.474
996.479
996.484
996.489
996.493
996.498
996.502
996.506
996.51
996.513
996.517
996.52
996.524
996.527
996.53
996.533
996.536
996.538
996.541
996.544
996.546
996.549
996.551
996.553
996.556
996.558
996.56
996.562
996.565
996.567
996.569
996.31
996.316
996.333
996.346
996.357
996.368
996.378
996.387
996.396
996.405
996.413
996.421
996.429
996.436
996.443
996.449
996.455
996.461
996.467
996.473
996.478
996.483
996.488
996.492
996.497
996.501
996.505
996.509
996.513
996.516
996.52
996.523
996.526
996.529
996.532
996.535
996.537
996.54
996.542
996.545
996.547
996.549
996.551
996.554
996.556
996.558
996.56
996.561
996.563
996.565
996.308
996.312
996.331
996.345
996.356
996.367
996.377
996.387
996.396
996.404
996.413
996.421
996.428
996.435
996.442
996.449
996.455
996.461
996.466
996.472
996.477
996.482
996.487
996.492
996.496
996.5
996.504
996.508
996.512
996.515
996.519
996.522
996.525
996.528
996.531
996.533
996.536
996.538
996.541
996.543
996.545
996.547
996.549
996.551
996.553
996.555
996.556
996.558
996.559
996.561
996.306
996.311
996.332
996.346
996.357
996.368
996.378
996.387
996.396
996.405
996.413
996.421
996.428
996.435
996.442
996.448
996.454
996.46
996.466
996.471
996.476
996.481
996.486
996.491
996.495
996.499
996.503
996.507
996.511
996.514
996.517
996.521
996.524
996.526
996.529
996.532
996.534
996.537
996.539
996.541
996.543
996.545
996.547
996.549
996.55
996.552
996.553
996.554
996.555
996.556
996.307
996.318
996.338
996.352
996.362
996.373
996.382
996.391
996.399
996.407
996.415
996.422
996.429
996.436
996.442
996.449
996.455
996.46
996.466
996.471
996.476
996.481
996.486
996.49
996.494
996.498
996.502
996.506
996.51
996.513
996.516
996.519
996.522
996.525
996.528
996.53
996.533
996.535
996.537
996.539
996.541
996.543
996.544
996.546
996.547
996.548
996.549
996.55
996.551
996.551
996.361
996.355
996.356
996.362
996.37
996.379
996.387
996.395
996.403
996.41
996.418
996.425
996.431
996.438
996.444
996.45
996.456
996.462
996.467
996.472
996.477
996.482
996.486
996.491
996.495
996.499
996.503
996.506
996.51
996.513
996.516
996.519
996.522
996.525
996.527
996.53
996.532
996.534
996.536
996.538
996.539
996.541
996.542
996.544
996.545
996.546
996.546
996.547
996.547
996.547
996.375
996.372
996.37
996.374
996.381
996.387
996.394
996.401
996.408
996.415
996.422
996.429
996.435
996.441
996.447
996.453
996.458
996.464
996.469
996.474
996.478
996.483
996.487
996.491
996.495
996.499
996.503
996.506
996.51
996.513
996.516
996.519
996.521
996.524
996.526
996.529
996.531
996.533
996.535
996.536
996.538
996.539
996.541
996.542
996.542
996.543
996.544
996.544
996.544
996.543
996.383
996.383
996.382
996.386
996.391
996.397
996.402
996.409
996.415
996.421
996.427
996.433
996.439
996.445
996.45
996.456
996.461
996.466
996.471
996.475
996.48
996.484
996.488
996.492
996.496
996.5
996.503
996.506
996.51
996.513
996.516
996.518
996.521
996.523
996.526
996.528
996.53
996.532
996.533
996.535
996.536
996.538
996.539
996.54
996.54
996.541
996.541
996.541
996.541
996.54
996.392
996.393
996.393
996.396
996.401
996.405
996.41
996.416
996.421
996.427
996.432
996.438
996.443
996.448
996.454
996.459
996.463
996.468
996.473
996.477
996.481
996.485
996.489
996.493
996.497
996.5
996.503
996.507
996.51
996.513
996.515
996.518
996.52
996.523
996.525
996.527
996.529
996.53
996.532
996.533
996.535
996.536
996.537
996.537
996.538
996.538
996.538
996.538
996.537
996.537
996.401
996.403
996.404
996.406
996.41
996.414
996.418
996.423
996.428
996.433
996.438
996.443
996.447
996.452
996.457
996.462
996.466
996.471
996.475
996.479
996.483
996.487
996.49
996.494
996.497
996.501
996.504
996.507
996.51
996.513
996.515
996.518
996.52
996.522
996.524
996.526
996.528
996.529
996.531
996.532
996.533
996.534
996.535
996.535
996.536
996.536
996.536
996.535
996.534
996.533
996.411
996.413
996.414
996.416
996.419
996.423
996.426
996.43
996.434
996.439
996.443
996.448
996.452
996.456
996.461
996.465
996.469
996.473
996.477
996.481
996.485
996.488
996.492
996.495
996.498
996.501
996.504
996.507
996.51
996.513
996.515
996.517
996.519
996.521
996.523
996.525
996.527
996.528
996.53
996.531
996.532
996.532
996.533
996.533
996.534
996.533
996.533
996.533
996.532
996.53
996.422
996.423
996.424
996.426
996.428
996.431
996.434
996.438
996.441
996.445
996.449
996.453
996.457
996.461
996.464
996.468
996.472
996.476
996.48
996.483
996.487
996.49
996.493
996.496
996.499
996.502
996.505
996.508
996.51
996.513
996.515
996.517
996.519
996.521
996.523
996.524
996.526
996.527
996.528
996.529
996.53
996.531
996.531
996.531
996.531
996.531
996.531
996.53
996.529
996.528
996.432
996.433
996.434
996.435
996.437
996.439
996.442
996.445
996.448
996.451
996.454
996.458
996.461
996.465
996.468
996.472
996.475
996.479
996.482
996.485
996.489
996.492
996.495
996.498
996.5
996.503
996.506
996.508
996.51
996.513
996.515
996.517
996.519
996.52
996.522
996.524
996.525
996.526
996.527
996.528
996.529
996.529
996.53
996.53
996.53
996.529
996.529
996.528
996.526
996.525
996.442
996.442
996.443
996.444
996.446
996.448
996.45
996.452
996.455
996.457
996.46
996.463
996.466
996.469
996.472
996.475
996.479
996.482
996.485
996.488
996.491
996.493
996.496
996.499
996.501
996.504
996.506
996.509
996.511
996.513
996.515
996.517
996.518
996.52
996.522
996.523
996.524
996.525
996.526
996.527
996.527
996.528
996.528
996.528
996.528
996.527
996.527
996.526
996.524
996.522
996.452
996.452
996.452
996.453
996.454
996.455
996.457
996.459
996.461
996.463
996.466
996.468
996.471
996.474
996.476
996.479
996.482
996.485
996.487
996.49
996.493
996.495
996.498
996.5
996.503
996.505
996.507
996.509
996.511
996.513
996.515
996.517
996.518
996.52
996.521
996.522
996.523
996.524
996.525
996.526
996.526
996.526
996.526
996.526
996.526
996.525
996.525
996.524
996.522
996.52
996.462
996.461
996.461
996.462
996.462
996.463
996.464
996.466
996.467
996.469
996.471
996.473
996.476
996.478
996.48
996.483
996.485
996.488
996.49
996.493
996.495
996.497
996.5
996.502
996.504
996.506
996.508
996.51
996.512
996.513
996.515
996.517
996.518
996.519
996.521
996.522
996.523
996.523
996.524
996.525
996.525
996.525
996.525
996.525
996.524
996.524
996.523
996.522
996.52
996.518
996.472
996.47
996.47
996.47
996.47
996.471
996.471
996.472
996.474
996.475
996.477
996.479
996.48
996.482
996.484
996.486
996.489
996.491
996.493
996.495
996.497
996.499
996.501
996.503
996.505
996.507
996.509
996.511
996.512
996.514
996.515
996.517
996.518
996.519
996.52
996.521
996.522
996.523
996.523
996.524
996.524
996.524
996.524
996.524
996.523
996.522
996.521
996.52
996.519
996.517
996.481
996.479
996.478
996.478
996.478
996.478
996.478
996.479
996.48
996.481
996.482
996.484
996.485
996.487
996.488
996.49
996.492
996.494
996.496
996.498
996.499
996.501
996.503
996.505
996.507
996.508
996.51
996.511
996.513
996.514
996.516
996.517
996.518
996.519
996.52
996.521
996.522
996.522
996.523
996.523
996.523
996.523
996.523
996.522
996.522
996.521
996.52
996.519
996.517
996.516
996.489
996.487
996.486
996.486
996.485
996.485
996.485
996.485
996.486
996.486
996.487
996.488
996.49
996.491
996.492
996.494
996.495
996.497
996.498
996.5
996.502
996.503
996.505
996.506
996.508
996.509
996.511
996.512
996.514
996.515
996.516
996.517
996.518
996.519
996.52
996.521
996.521
996.522
996.522
996.522
996.522
996.522
996.522
996.521
996.521
996.52
996.519
996.518
996.516
996.514
996.498
996.495
996.494
996.493
996.492
996.492
996.491
996.491
996.491
996.492
996.492
996.493
996.494
996.495
996.496
996.497
996.499
996.5
996.501
996.503
996.504
996.505
996.507
996.508
996.509
996.511
996.512
996.513
996.514
996.515
996.516
996.517
996.518
996.519
996.52
996.52
996.521
996.521
996.521
996.522
996.522
996.521
996.521
996.521
996.52
996.519
996.518
996.517
996.515
996.514
996.505
996.502
996.501
996.5
996.499
996.498
996.497
996.497
996.497
996.497
996.497
996.498
996.498
996.499
996.5
996.501
996.502
996.503
996.504
996.505
996.506
996.507
996.509
996.51
996.511
996.512
996.513
996.514
996.515
996.516
996.517
996.518
996.519
996.519
996.52
996.52
996.521
996.521
996.521
996.521
996.521
996.521
996.52
996.52
996.519
996.518
996.517
996.516
996.515
996.513
996.513
996.509
996.508
996.506
996.505
996.504
996.503
996.502
996.502
996.502
996.502
996.502
996.502
996.503
996.504
996.504
996.505
996.506
996.507
996.508
996.509
996.509
996.51
996.511
996.512
996.513
996.514
996.515
996.516
996.517
996.518
996.518
996.519
996.519
996.52
996.52
996.521
996.521
996.521
996.521
996.521
996.52
996.52
996.519
996.519
996.518
996.517
996.516
996.514
996.513
996.519
996.516
996.514
996.513
996.511
996.51
996.509
996.508
996.507
996.507
996.506
996.506
996.507
996.507
996.507
996.508
996.508
996.509
996.509
996.51
996.511
996.512
996.512
996.513
996.514
996.515
996.515
996.516
996.517
996.518
996.518
996.519
996.519
996.52
996.52
996.52
996.521
996.521
996.521
996.521
996.52
996.52
996.52
996.519
996.518
996.518
996.517
996.515
996.514
996.512
996.526
996.522
996.52
996.518
996.516
996.515
996.514
996.513
996.512
996.511
996.511
996.51
996.51
996.51
996.51
996.511
996.511
996.511
996.512
996.512
996.513
996.514
996.514
996.515
996.515
996.516
996.517
996.517
996.518
996.518
996.519
996.519
996.52
996.52
996.52
996.52
996.521
996.521
996.521
996.52
996.52
996.52
996.519
996.519
996.518
996.517
996.516
996.515
996.514
996.512
996.531
996.528
996.526
996.524
996.522
996.52
996.519
996.517
996.516
996.516
996.515
996.514
996.514
996.514
996.514
996.514
996.514
996.514
996.514
996.515
996.515
996.516
996.516
996.516
996.517
996.517
996.518
996.518
996.519
996.519
996.519
996.52
996.52
996.52
996.521
996.521
996.521
996.521
996.521
996.52
996.52
996.52
996.519
996.519
996.518
996.517
996.516
996.515
996.514
996.513
996.537
996.533
996.531
996.529
996.527
996.525
996.523
996.522
996.521
996.52
996.519
996.518
996.518
996.517
996.517
996.517
996.517
996.517
996.517
996.517
996.517
996.517
996.518
996.518
996.518
996.519
996.519
996.519
996.52
996.52
996.52
996.52
996.521
996.521
996.521
996.521
996.521
996.521
996.521
996.52
996.52
996.52
996.519
996.519
996.518
996.517
996.516
996.515
996.514
996.513
996.542
996.538
996.536
996.534
996.531
996.529
996.528
996.526
996.525
996.524
996.523
996.522
996.521
996.52
996.52
996.52
996.519
996.519
996.519
996.519
996.519
996.519
996.519
996.52
996.52
996.52
996.52
996.52
996.521
996.521
996.521
996.521
996.521
996.521
996.521
996.521
996.521
996.521
996.521
996.521
996.52
996.52
996.519
996.519
996.518
996.517
996.516
996.516
996.514
996.513
996.547
996.543
996.541
996.538
996.536
996.534
996.532
996.53
996.528
996.527
996.526
996.525
996.524
996.523
996.523
996.522
996.522
996.522
996.522
996.521
996.521
996.521
996.521
996.521
996.521
996.521
996.521
996.522
996.522
996.522
996.522
996.522
996.522
996.522
996.522
996.522
996.522
996.521
996.521
996.521
996.52
996.52
996.519
996.519
996.518
996.518
996.517
996.516
996.515
996.514
996.551
996.547
996.545
996.542
996.54
996.538
996.536
996.534
996.532
996.531
996.529
996.528
996.527
996.526
996.526
996.525
996.525
996.524
996.524
996.523
996.523
996.523
996.523
996.523
996.523
996.523
996.523
996.523
996.523
996.523
996.523
996.523
996.522
996.522
996.522
996.522
996.522
996.522
996.521
996.521
996.521
996.52
996.52
996.519
996.518
996.518
996.517
996.516
996.515
996.514
996.555
996.551
996.549
996.546
996.544
996.541
996.539
996.537
996.535
996.534
996.533
996.531
996.53
996.529