/*--------------------------------*- C++ -*----------------------------------*\
  =========                 |
  \\      /  F ield         | OpenFOAM: The Open Source CFD Toolbox
   \\    /   O peration     | Website:  https://openfoam.org
    \\  /    A nd           | Version:  6
     \\/     M anipulation  |
\*---------------------------------------------------------------------------*/
FoamFile
{
    version     2.0;
    format      ascii;
    class       volScalarField;
    location    "0.55";
    object      p;
}
// * * * * * * * * * * * * * * * * * * * * * * * * * * * * * * * * * * * * * //

dimensions      [0 2 -2 0 0 0 0];

internalField   nonuniform List<scalar> 
5600
(
998.581
998.915
999.224
999.238
999.206
999.202
999.208
999.213
999.218
999.223
999.229
999.236
999.244
999.252
999.262
999.273
999.285
999.299
999.314
999.33
998.562
998.921
999.229
999.237
999.204
999.201
999.207
999.212
999.217
999.222
999.228
999.235
999.243
999.251
999.261
999.272
999.284
999.297
999.312
999.328
998.55
998.92
999.23
999.235
999.202
999.199
999.205
999.21
999.214
999.219
999.225
999.232
999.239
999.248
999.257
999.267
999.279
999.292
999.306
999.321
998.535
998.917
999.229
999.232
999.198
999.195
999.201
999.206
999.21
999.215
999.22
999.226
999.233
999.241
999.25
999.259
999.27
999.281
999.294
999.307
998.517
998.912
999.227
999.228
999.193
999.19
999.196
999.201
999.204
999.208
999.213
999.219
999.225
999.232
999.24
999.248
999.257
999.267
999.277
999.288
998.495
998.906
999.225
999.223
999.188
999.184
999.19
999.194
999.197
999.2
999.205
999.21
999.215
999.221
999.227
999.234
999.241
999.249
999.257
999.264
998.471
998.899
999.222
999.218
999.181
999.177
999.183
999.186
999.188
999.191
999.195
999.199
999.203
999.208
999.213
999.218
999.223
999.228
999.233
999.236
998.444
998.893
999.22
999.211
999.173
999.169
999.174
999.177
999.179
999.181
999.184
999.186
999.19
999.193
999.196
999.199
999.202
999.204
999.206
999.206
998.413
998.889
999.219
999.204
999.164
999.161
999.165
999.167
999.168
999.17
999.172
999.173
999.175
999.177
999.179
999.18
999.18
999.179
999.177
999.173
998.36
998.896
999.219
999.192
999.153
999.152
999.156
999.157
999.157
999.158
999.159
999.16
999.161
999.161
999.161
999.16
999.158
999.154
999.149
999.141
999.352
999.381
999.414
999.451
999.495
999.544
999.601
999.662
999.731
999.896
999.349
999.377
999.409
999.446
999.488
999.536
999.59
999.649
999.714
999.879
999.339
999.366
999.397
999.432
999.472
999.517
999.568
999.623
999.683
999.843
999.323
999.347
999.376
999.409
999.445
999.487
999.533
999.582
999.636
999.788
999.299
999.32
999.347
999.377
999.41
999.446
999.486
999.529
999.576
999.717
999.27
999.288
999.312
999.338
999.366
999.397
999.43
999.465
999.503
999.63
999.236
999.25
999.271
999.293
999.316
999.341
999.366
999.392
999.42
999.531
999.199
999.21
999.227
999.245
999.262
999.28
999.297
999.314
999.332
999.422
999.16
999.166
999.181
999.193
999.205
999.216
999.226
999.234
999.241
999.309
999.119
999.124
999.135
999.142
999.148
999.152
999.153
999.151
999.144
999.19
999.085
999.092
999.096
999.097
999.094
999.085
999.069
999.045
999.019
999.053
999.047
999.051
999.049
999.043
999.033
999.015
998.989
998.953
998.917
998.931
999.006
999.005
998.998
998.986
998.969
998.944
998.91
998.867
998.824
998.816
998.964
998.958
998.945
998.928
998.905
998.873
998.832
998.783
998.733
998.706
998.92
998.91
998.892
998.87
998.841
998.803
998.756
998.702
998.647
998.603
998.876
998.862
998.84
998.813
998.779
998.737
998.685
998.627
998.569
998.51
998.833
998.815
998.79
998.76
998.722
998.676
998.621
998.56
998.501
998.427
998.792
998.771
998.743
998.71
998.669
998.621
998.565
998.503
998.442
998.357
998.754
998.73
998.701
998.665
998.623
998.574
998.518
998.456
998.395
998.3
998.72
998.694
998.663
998.627
998.584
998.535
998.479
998.418
998.356
998.253
999.08
999.041
999.001
998.961
998.92
998.879
998.84
998.803
998.768
998.737
999.067
999.03
998.993
998.956
998.918
998.881
998.844
998.81
998.779
998.75
999.052
999.017
998.982
998.948
998.914
998.88
998.847
998.816
998.788
998.761
999.038
999.005
998.973
998.942
998.911
998.88
998.85
998.822
998.795
998.77
999.026
998.995
998.965
998.937
998.908
998.88
998.853
998.827
998.802
998.779
999.015
998.986
998.959
998.932
998.906
998.88
998.855
998.831
998.808
998.787
999.005
998.978
998.953
998.929
998.904
998.88
998.857
998.835
998.814
998.793
998.996
998.971
998.948
998.925
998.903
998.88
998.859
998.838
998.819
998.799
998.988
998.965
998.943
998.922
998.901
998.881
998.861
998.841
998.823
998.805
998.98
998.959
998.939
998.919
998.9
998.881
998.862
998.844
998.827
998.81
998.974
998.954
998.935
998.917
998.899
998.881
998.864
998.847
998.83
998.814
998.968
998.95
998.932
998.915
998.898
998.881
998.865
998.849
998.833
998.818
998.963
998.946
998.929
998.913
998.897
998.881
998.866
998.851
998.836
998.822
998.958
998.942
998.926
998.911
998.896
998.881
998.867
998.853
998.839
998.825
998.954
998.939
998.924
998.91
998.895
998.881
998.868
998.854
998.841
998.828
998.95
998.935
998.922
998.908
998.895
998.881
998.868
998.856
998.843
998.831
998.946
998.933
998.92
998.907
998.894
998.881
998.869
998.857
998.845
998.833
998.943
998.93
998.918
998.906
998.893
998.882
998.87
998.858
998.847
998.835
998.939
998.928
998.916
998.904
998.893
998.881
998.87
998.859
998.848
998.837
998.937
998.925
998.914
998.903
998.892
998.881
998.871
998.86
998.85
998.839
998.934
998.923
998.913
998.902
998.892
998.881
998.871
998.861
998.851
998.841
998.932
998.921
998.911
998.901
998.891
998.881
998.871
998.862
998.852
998.843
998.929
998.92
998.91
998.9
998.891
998.881
998.872
998.862
998.853
998.844
998.927
998.918
998.909
998.9
998.89
998.881
998.872
998.863
998.854
998.845
998.925
998.916
998.908
998.899
998.89
998.881
998.872
998.864
998.855
998.846
998.923
998.915
998.906
998.898
998.889
998.881
998.873
998.864
998.856
998.847
998.922
998.914
998.905
998.897
998.889
998.881
998.873
998.865
998.856
998.848
998.92
998.912
998.904
998.897
998.889
998.881
998.873
998.865
998.857
998.849
998.919
998.911
998.904
998.896
998.888
998.881
998.873
998.865
998.858
998.85
998.917
998.91
998.903
998.895
998.888
998.88
998.873
998.866
998.858
998.851
998.916
998.909
998.902
998.895
998.888
998.88
998.873
998.866
998.859
998.852
998.915
998.908
998.901
998.894
998.887
998.88
998.873
998.866
998.859
998.852
998.914
998.907
998.9
998.894
998.887
998.88
998.873
998.866
998.86
998.853
998.913
998.906
998.9
998.893
998.887
998.88
998.873
998.867
998.86
998.853
998.912
998.905
998.899
998.893
998.886
998.88
998.873
998.867
998.86
998.854
998.911
998.905
998.899
998.892
998.886
998.88
998.873
998.867
998.86
998.854
998.91
998.904
998.898
998.892
998.886
998.88
998.873
998.867
998.861
998.854
998.909
998.903
998.898
998.892
998.886
998.879
998.873
998.867
998.861
998.855
998.909
998.903
998.897
998.891
998.885
998.879
998.873
998.867
998.861
998.855
998.908
998.902
998.897
998.891
998.885
998.879
998.873
998.867
998.861
998.855
998.907
998.902
998.896
998.891
998.885
998.879
998.873
998.867
998.861
998.855
998.907
998.902
998.896
998.89
998.885
998.879
998.873
998.867
998.862
998.856
998.906
998.901
998.896
998.89
998.885
998.879
998.873
998.867
998.862
998.856
998.906
998.901
998.895
998.89
998.884
998.879
998.873
998.867
998.862
998.856
998.906
998.901
998.895
998.89
998.884
998.879
998.873
998.867
998.862
998.856
998.905
998.9
998.895
998.89
998.884
998.879
998.873
998.867
998.862
998.856
998.905
998.9
998.895
998.89
998.884
998.879
998.873
998.867
998.862
998.856
998.905
998.9
998.895
998.889
998.884
998.879
998.873
998.868
998.862
998.856
998.905
998.9
998.895
998.889
998.884
998.879
998.873
998.867
998.862
998.856
998.905
998.9
998.895
998.889
998.884
998.879
998.873
998.867
998.862
998.856
998.258
998.938
999.228
999.173
999.14
999.142
999.145
999.145
999.144
999.144
999.143
999.142
999.141
999.14
999.137
999.133
999.128
999.121
999.11
999.094
998.208
998.948
999.225
999.161
999.131
999.135
999.137
999.136
999.135
999.134
999.133
999.131
999.13
999.127
999.123
999.119
999.112
999.104
999.093
999.077
998.183
998.943
999.218
999.151
999.124
999.128
999.129
999.128
999.126
999.125
999.123
999.121
999.119
999.115
999.111
999.106
999.099
999.09
999.079
999.064
998.163
998.935
999.211
999.143
999.116
999.12
999.121
999.119
999.118
999.116
999.114
999.111
999.108
999.104
999.099
999.093
999.086
999.077
999.066
999.052
998.146
998.926
999.205
999.136
999.108
999.112
999.113
999.111
999.109
999.107
999.104
999.101
999.098
999.093
999.088
999.082
999.074
999.065
999.053
999.04
998.129
998.918
999.198
999.128
999.1
999.105
999.105
999.103
999.101
999.098
999.095
999.092
999.088
999.083
999.077
999.071
999.063
999.053
999.042
999.029
998.114
998.909
999.192
999.121
999.092
999.097
999.098
999.095
999.092
999.09
999.086
999.083
999.078
999.073
999.067
999.06
999.052
999.043
999.032
999.019
998.098
998.901
999.186
999.114
999.085
999.089
999.09
999.087
999.084
999.081
999.078
999.074
999.069
999.064
999.058
999.051
999.043
999.033
999.023
999.01
998.083
998.892
999.179
999.107
999.078
999.082
999.083
999.08
999.077
999.074
999.07
999.066
999.061
999.055
999.049
999.042
999.034
999.025
999.014
999.002
998.069
998.884
999.173
999.1
999.071
999.075
999.075
999.072
999.069
999.066
999.062
999.058
999.053
999.047
999.041
999.034
999.026
999.016
999.006
998.995
998.054
998.876
999.167
999.093
999.064
999.068
999.068
999.065
999.062
999.059
999.055
999.05
999.045
999.04
999.033
999.026
999.018
999.009
998.999
998.988
998.04
998.868
999.161
999.087
999.057
999.061
999.062
999.058
999.055
999.051
999.047
999.043
999.038
999.032
999.026
999.019
999.011
999.002
998.992
998.982
998.027
998.861
999.156
999.081
999.051
999.055
999.055
999.052
999.048
999.045
999.041
999.036
999.031
999.025
999.019
999.012
999.004
998.996
998.986
998.976
998.013
998.853
999.15
999.075
999.044
999.049
999.049
999.045
999.042
999.038
999.034
999.03
999.024
999.019
999.013
999.006
998.998
998.99
998.981
998.971
998.001
998.846
999.145
999.069
999.038
999.043
999.043
999.039
999.036
999.032
999.028
999.023
999.018
999.013
999.006
999
998.992
998.984
998.975
998.966
997.988
998.839
999.14
999.063
999.032
999.037
999.037
999.033
999.03
999.026
999.022
999.018
999.012
999.007
999.001
998.994
998.987
998.979
998.971
998.962
997.976
998.832
999.135
999.058
999.027
999.031
999.031
999.028
999.024
999.021
999.016
999.012
999.007
999.001
998.995
998.989
998.982
998.974
998.966
998.958
997.964
998.826
999.13
999.052
999.021
999.026
999.026
999.022
999.019
999.015
999.011
999.007
999.002
998.996
998.99
998.984
998.977
998.97
998.962
998.954
997.953
998.82
999.125
999.047
999.016
999.02
999.021
999.017
999.014
999.01
999.006
999.002
998.997
998.991
998.986
998.98
998.973
998.966
998.958
998.95
997.943
998.814
999.121
999.042
999.011
999.016
999.016
999.012
999.009
999.005
999.001
998.997
998.992
998.987
998.981
998.975
998.969
998.962
998.955
998.947
997.932
998.808
999.117
999.038
999.006
999.011
999.011
999.008
999.004
999.001
998.997
998.992
998.988
998.983
998.977
998.971
998.965
998.958
998.951
998.944
997.922
998.802
999.113
999.033
999.002
999.006
999.007
999.003
999
998.996
998.992
998.988
998.984
998.979
998.973
998.968
998.961
998.955
998.948
998.941
997.913
998.797
999.109
999.029
998.997
999.002
999.002
998.999
998.995
998.992
998.988
998.984
998.98
998.975
998.97
998.964
998.958
998.952
998.945
998.938
997.904
998.792
999.105
999.025
998.993
998.998
998.998
998.995
998.991
998.988
998.984
998.98
998.976
998.971
998.966
998.961
998.955
998.949
998.943
998.936
997.895
998.787
999.101
999.021
998.989
998.994
998.994
998.991
998.988
998.984
998.981
998.977
998.972
998.968
998.963
998.958
998.952
998.946
998.94
998.934
997.887
998.783
999.098
999.017
998.985
998.99
998.991
998.987
998.984
998.981
998.977
998.973
998.969
998.965
998.96
998.955
998.949
998.944
998.938
998.932
997.88
998.778
999.095
999.014
998.982
998.987
998.987
998.984
998.981
998.977
998.974
998.97
998.966
998.962
998.957
998.952
998.947
998.941
998.935
998.929
997.872
998.774
999.092
999.011
998.978
998.983
998.984
998.981
998.977
998.974
998.971
998.967
998.963
998.959
998.954
998.949
998.944
998.939
998.933
998.928
997.865
998.77
999.089
999.007
998.975
998.98
998.981
998.978
998.974
998.971
998.968
998.964
998.96
998.956
998.952
998.947
998.942
998.937
998.931
998.926
997.859
998.767
999.086
999.004
998.972
998.977
998.978
998.975
998.972
998.969
998.965
998.962
998.958
998.954
998.949
998.945
998.94
998.935
998.93
998.924
997.852
998.763
999.084
999.002
998.969
998.974
998.975
998.972
998.969
998.966
998.963
998.959
998.955
998.951
998.947
998.943
998.938
998.933
998.928
998.923
997.847
998.76
999.081
998.999
998.967
998.972
998.972
998.969
998.966
998.963
998.96
998.957
998.953
998.949
998.945
998.941
998.936
998.931
998.926
998.921
997.841
998.757
999.079
998.997
998.964
998.969
998.97
998.967
998.964
998.961
998.958
998.955
998.951
998.947
998.943
998.939
998.934
998.93
998.925
998.92
997.836
998.754
999.077
998.994
998.962
998.967
998.968
998.965
998.962
998.959
998.956
998.953
998.949
998.945
998.941
998.937
998.933
998.928
998.924
998.919
997.831
998.751
999.075
998.992
998.96
998.965
998.966
998.963
998.96
998.957
998.954
998.951
998.947
998.944
998.94
998.936
998.931
998.927
998.922
998.917
997.827
998.749
999.073
998.99
998.957
998.963
998.964
998.961
998.958
998.955
998.952
998.949
998.946
998.942
998.938
998.934
998.93
998.926
998.921
998.916
997.823
998.747
999.071
998.988
998.956
998.961
998.962
998.959
998.956
998.953
998.95
998.947
998.944
998.94
998.937
998.933
998.929
998.924
998.92
998.915
997.819
998.744
999.07
998.987
998.954
998.959
998.96
998.957
998.954
998.952
998.949
998.946
998.943
998.939
998.935
998.932
998.928
998.923
998.919
998.915
997.815
998.742
999.068
998.985
998.952
998.958
998.959
998.956
998.953
998.95
998.948
998.944
998.941
998.938
998.934
998.93
998.926
998.922
998.918
998.914
997.812
998.741
999.067
998.984
998.951
998.956
998.957
998.954
998.952
998.949
998.946
998.943
998.94
998.937
998.933
998.929
998.926
998.921
998.917
998.913
997.809
998.739
999.066
998.982
998.949
998.955
998.956
998.953
998.95
998.948
998.945
998.942
998.939
998.936
998.932
998.928
998.925
998.921
998.917
998.912
997.807
998.738
999.065
998.981
998.948
998.954
998.955
998.952
998.949
998.947
998.944
998.941
998.938
998.935
998.931
998.928
998.924
998.92
998.916
998.912
997.804
998.736
999.064
998.98
998.947
998.953
998.954
998.951
998.948
998.946
998.943
998.94
998.937
998.934
998.931
998.927
998.923
998.919
998.915
998.911
997.802
998.735
999.063
998.979
998.946
998.952
998.953
998.95
998.948
998.945
998.942
998.94
998.936
998.933
998.93
998.926
998.923
998.919
998.915
998.911
997.801
998.734
999.062
998.979
998.946
998.951
998.952
998.949
998.947
998.944
998.942
998.939
998.936
998.933
998.929
998.926
998.922
998.918
998.914
998.91
997.8
998.733
999.062
998.978
998.945
998.951
998.952
998.949
998.946
998.944
998.941
998.938
998.935
998.932
998.929
998.925
998.922
998.918
998.914
998.91
997.799
998.732
999.061
998.978
998.945
998.95
998.951
998.948
998.946
998.943
998.941
998.938
998.935
998.932
998.928
998.925
998.921
998.918
998.914
998.91
997.801
998.731
999.061
998.978
998.944
998.95
998.951
998.948
998.945
998.943
998.94
998.938
998.935
998.931
998.928
998.925
998.921
998.917
998.914
998.91
997.808
998.726
999.06
998.979
998.944
998.949
998.951
998.948
998.945
998.943
998.94
998.937
998.934
998.931
998.928
998.925
998.921
998.917
998.913
998.909
997.838
998.705
999.056
998.982
998.945
998.949
998.95
998.948
998.945
998.943
998.94
998.937
998.934
998.931
998.928
998.924
998.921
998.917
998.913
998.909
998.575
998.542
998.511
998.483
998.454
998.423
998.389
998.354
998.318
998.252
998.58
998.546
998.515
998.487
998.459
998.429
998.397
998.363
998.329
998.27
998.575
998.546
998.517
998.492
998.465
998.437
998.407
998.375
998.343
998.292
998.569
998.544
998.518
998.494
998.469
998.443
998.415
998.386
998.357
998.314
998.564
998.543
998.519
998.497
998.473
998.449
998.423
998.396
998.37
998.335
998.56
998.541
998.52
998.499
998.477
998.454
998.43
998.405
998.381
998.355
998.557
998.54
998.521
998.502
998.481
998.459
998.436
998.413
998.392
998.372
998.555
998.54
998.522
998.504
998.484
998.463
998.441
998.419
998.4
998.385
998.555
998.541
998.524
998.506
998.487
998.466
998.445
998.424
998.405
998.394
998.555
998.541
998.525
998.508
998.488
998.468
998.447
998.426
998.408
998.399
998.565
998.574
998.583
998.592
998.601
998.61
998.618
998.627
998.635
998.643
998.651
998.659
998.666
998.674
998.681
998.688
998.695
998.701
998.708
998.714
998.72
998.726
998.732
998.738
998.743
998.749
998.754
998.759
998.764
998.769
998.774
998.779
998.784
998.788
998.793
998.798
998.802
998.807
998.812
998.817
998.821
998.826
998.831
998.837
998.842
998.848
998.854
998.86
998.868
998.874
998.561
998.57
998.58
998.589
998.598
998.607
998.616
998.624
998.633
998.641
998.649
998.657
998.665
998.672
998.679
998.686
998.693
998.7
998.706
998.713
998.719
998.725
998.731
998.736
998.742
998.747
998.753
998.758
998.763
998.768
998.773
998.778
998.783
998.787
998.792
998.797
998.801
998.806
998.811
998.816
998.82
998.825
998.83
998.836
998.841
998.847
998.853
998.859
998.866
998.873
998.557
998.565
998.576
998.586
998.595
998.604
998.613
998.622
998.63
998.639
998.647
998.655
998.662
998.67
998.677
998.684
998.691
998.698
998.704
998.711
998.717
998.723
998.729
998.735
998.74
998.746
998.751
998.756
998.761
998.767
998.771
998.776
998.781
998.786
998.791
998.795
998.8
998.805
998.809
998.814
998.819
998.824
998.829
998.834
998.839
998.844
998.85
998.856
998.863
998.87
998.551
998.559
998.571
998.582
998.591
998.601
998.61
998.619
998.628
998.636
998.644
998.652
998.66
998.667
998.675
998.682
998.689
998.696
998.702
998.709
998.715
998.721
998.727
998.733
998.738
998.744
998.749
998.754
998.759
998.764
998.769
998.774
998.779
998.784
998.788
998.793
998.798
998.802
998.807
998.812
998.816
998.821
998.826
998.831
998.836
998.841
998.847
998.853
998.859
998.865
998.546
998.553
998.566
998.577
998.588
998.597
998.607
998.616
998.625
998.633
998.642
998.65
998.657
998.665
998.672
998.68
998.686
998.693
998.7
998.706
998.712
998.718
998.724
998.73
998.736
998.741
998.747
998.752
998.757
998.762
998.767
998.772
998.777
998.781
998.786
998.79
998.795
998.8
998.804
998.809
998.813
998.818
998.823
998.827
998.832
998.837
998.842
998.848
998.854
998.859
998.54
998.546
998.561
998.574
998.584
998.594
998.604
998.613
998.622
998.631
998.639
998.647
998.655
998.663
998.67
998.677
998.684
998.691
998.697
998.704
998.71
998.716
998.722
998.728
998.733
998.739
998.744
998.749
998.754
998.759
998.764
998.769
998.774
998.778
998.783
998.787
998.792
998.796
998.801
998.805
998.81
998.814
998.819
998.823
998.828
998.832
998.837
998.842
998.847
998.852
998.535
998.541
998.557
998.57
998.581
998.591
998.601
998.611
998.62
998.629
998.637
998.645
998.653
998.66
998.668
998.675
998.682
998.688
998.695
998.701
998.707
998.713
998.719
998.725
998.73
998.736
998.741
998.746
998.751
998.756
998.761
998.766
998.77
998.775
998.78
998.784
998.788
998.793
998.797
998.801
998.805
998.81
998.814
998.818
998.822
998.827
998.831
998.835
998.84
998.844
998.533
998.537
998.555
998.569
998.58
998.59
998.6
998.61
998.619
998.627
998.636
998.644
998.651
998.659
998.666
998.673
998.68
998.686
998.693
998.699
998.705
998.711
998.717
998.722
998.728
998.733
998.738
998.743
998.748
998.753
998.758
998.763
998.767
998.772
998.776
998.78
998.785
998.789
998.793
998.797
998.801
998.805
998.809
998.813
998.816
998.82
998.824
998.828
998.832
998.835
998.531
998.536
998.556
998.569
998.58
998.59
998.6
998.609
998.618
998.627
998.635
998.643
998.65
998.658
998.665
998.671
998.678
998.685
998.691
998.697
998.703
998.709
998.714
998.72
998.725
998.73
998.735
998.74
998.745
998.75
998.755
998.759
998.764
998.768
998.772
998.776
998.78
998.784
998.788
998.792
998.796
998.8
998.803
998.807
998.81
998.813
998.817
998.82
998.823
998.826
998.532
998.543
998.562
998.574
998.585
998.595
998.604
998.612
998.621
998.629
998.636
998.644
998.651
998.658
998.665
998.671
998.678
998.684
998.69
998.696
998.701
998.707
998.712
998.718
998.723
998.728
998.733
998.738
998.742
998.747
998.751
998.756
998.76
998.764
998.768
998.772
998.776
998.78
998.783
998.787
998.791
998.794
998.797
998.8
998.803
998.806
998.809
998.811
998.814
998.816
998.582
998.577
998.578
998.584
998.591
998.599
998.607
998.615
998.623
998.63
998.638
998.645
998.652
998.658
998.665
998.671
998.677
998.683
998.689
998.695
998.701
998.706
998.711
998.717
998.722
998.727
998.731
998.736
998.741
998.745
998.749
998.754
998.758
998.762
998.766
998.769
998.773
998.777
998.78
998.783
998.787
998.79
998.793
998.795
998.798
998.8
998.803
998.804
998.806
998.808
998.595
998.593
998.591
998.595
998.601
998.608
998.615
998.622
998.628
998.635
998.642
998.648
998.655
998.661
998.667
998.673
998.679
998.685
998.691
998.696
998.701
998.706
998.712
998.717
998.721
998.726
998.731
998.735
998.74
998.744
998.748
998.752
998.756
998.76
998.763
998.767
998.77
998.774
998.777
998.78
998.783
998.786
998.788
998.791
998.793
998.795
998.797
998.799
998.8
998.801
998.603
998.604
998.603
998.606
998.611
998.617
998.622
998.628
998.635
998.641
998.647
998.653
998.659
998.665
998.67
998.676
998.681
998.687
998.692
998.697
998.702
998.707
998.712
998.717
998.721
998.726
998.73
998.734
998.739
998.743
998.747
998.75
998.754
998.758
998.761
998.765
998.768
998.771
998.774
998.777
998.779
998.782
998.784
998.786
998.788
998.79
998.791
998.793
998.794
998.794
998.612
998.613
998.613
998.616
998.62
998.625
998.63
998.635
998.641
998.646
998.652
998.657
998.663
998.668
998.673
998.679
998.684
998.689
998.694
998.699
998.703
998.708
998.713
998.717
998.721
998.726
998.73
998.734
998.738
998.742
998.745
998.749
998.752
998.756
998.759
998.762
998.765
998.768
998.771
998.773
998.776
998.778
998.78
998.782
998.784
998.785
998.786
998.787
998.787
998.787
998.621
998.623
998.624
998.626
998.629
998.633
998.638
998.642
998.647
998.652
998.657
998.662
998.667
998.672
998.677
998.681
998.686
998.691
998.696
998.7
998.705
998.709
998.713
998.718
998.722
998.726
998.73
998.733
998.737
998.741
998.744
998.748
998.751
998.754
998.757
998.76
998.763
998.765
998.768
998.77
998.772
998.774
998.776
998.777
998.779
998.78
998.781
998.781
998.781
998.781
998.631
998.633
998.633
998.635
998.638
998.642
998.645
998.649
998.653
998.658
998.662
998.667
998.671
998.676
998.68
998.685
998.689
998.693
998.698
998.702
998.706
998.71
998.714
998.718
998.722
998.726
998.729
998.733
998.736
998.74
998.743
998.746
998.749
998.752
998.755
998.758
998.76
998.763
998.765
998.767
998.769
998.77
998.772
998.773
998.774
998.775
998.775
998.775
998.775
998.774
998.641
998.642
998.643
998.645
998.647
998.65
998.653
998.656
998.66
998.664
998.668
998.671
998.676
998.68
998.684
998.688
998.692
998.696
998.7
998.704
998.708
998.711
998.715
998.719
998.722
998.726
998.729
998.733
998.736
998.739
998.742
998.745
998.748
998.75
998.753
998.755
998.758
998.76
998.762
998.764
998.765
998.767
998.768
998.769
998.769
998.77
998.77
998.77
998.769
998.768
998.651
998.651
998.652
998.654
998.656
998.658
998.66
998.663
998.666
998.67
998.673
998.676
998.68
998.684
998.687
998.691
998.695
998.698
998.702
998.706
998.709
998.713
998.716
998.72
998.723
998.726
998.729
998.732
998.735
998.738
998.741
998.744
998.746
998.749
998.751
998.753
998.755
998.757
998.759
998.76
998.762
998.763
998.764
998.765
998.765
998.765
998.765
998.764
998.763
998.762
998.661
998.661
998.661
998.662
998.664
998.666
998.668
998.67
998.673
998.675
998.678
998.681
998.685
998.688
998.691
998.694
998.698
998.701
998.704
998.708
998.711
998.714
998.717
998.72
998.723
998.726
998.729
998.732
998.735
998.738
998.74
998.743
998.745
998.747
998.749
998.751
998.753
998.755
998.756
998.757
998.759
998.759
998.76
998.76
998.761
998.76
998.76
998.759
998.758
998.756
998.67
998.67
998.67
998.671
998.672
998.673
998.675
998.677
998.679
998.681
998.684
998.686
998.689
998.692
998.695
998.698
998.701
998.704
998.707
998.71
998.713
998.716
998.718
998.721
998.724
998.727
998.729
998.732
998.735
998.737
998.739
998.741
998.744
998.746
998.747
998.749
998.751
998.752
998.753
998.754
998.755
998.756
998.756
998.757
998.756
998.756
998.755
998.754
998.753
998.751
998.68
998.679
998.679
998.679
998.68
998.681
998.682
998.683
998.685
998.687
998.689
998.691
998.694
998.696
998.699
998.701
998.704
998.706
998.709
998.712
998.714
998.717
998.72
998.722
998.725
998.727
998.73
998.732
998.734
998.736
998.738
998.74
998.742
998.744
998.746
998.747
998.749
998.75
998.751
998.752
998.752
998.753
998.753
998.753
998.752
998.752
998.751
998.749
998.748
998.745
998.689
998.687
998.687
998.687
998.687
998.688
998.689
998.69
998.691
998.693
998.694
998.696
998.698
998.7
998.702
998.705
998.707
998.709
998.712
998.714
998.716
998.719
998.721
998.723
998.726
998.728
998.73
998.732
998.734
998.736
998.738
998.74
998.741
998.743
998.744
998.745
998.747
998.747
998.748
998.749
998.749
998.75
998.749
998.749
998.749
998.748
998.747
998.745
998.743
998.741
998.697
998.695
998.695
998.695
998.695
998.695
998.695
998.696
998.697
998.698
998.699
998.701
998.702
998.704
998.706
998.708
998.71
998.712
998.714
998.716
998.718
998.72
998.722
998.724
998.726
998.728
998.73
998.732
998.734
998.735
998.737
998.739
998.74
998.741
998.743
998.744
998.745
998.745
998.746
998.746
998.747
998.747
998.746
998.746
998.745
998.744
998.743
998.741
998.739
998.736
998.705
998.703
998.703
998.702
998.701
998.701
998.701
998.702
998.702
998.703
998.704
998.705
998.707
998.708
998.71
998.711
998.713
998.715
998.716
998.718
998.72
998.722
998.723
998.725
998.727
998.729
998.73
998.732
998.734
998.735
998.737
998.738
998.739
998.74
998.741
998.742
998.743
998.743
998.744
998.744
998.744
998.744
998.743
998.743
998.742
998.741
998.739
998.737
998.735
998.732
998.713
998.711
998.71
998.709
998.708
998.707
998.707
998.707
998.708
998.708
998.709
998.71
998.711
998.712
998.713
998.714
998.716
998.717
998.719
998.72
998.722
998.723
998.725
998.726
998.728
998.729
998.731
998.732
998.734
998.735
998.736
998.737
998.738
998.739
998.74
998.74
998.741
998.741
998.742
998.742
998.741
998.741
998.741
998.74
998.739
998.737
998.736
998.734
998.731
998.729
998.72
998.718
998.716
998.715
998.714
998.713
998.713
998.713
998.713
998.713
998.713
998.714
998.715
998.715
998.716
998.717
998.718
998.72
998.721
998.722
998.723
998.725
998.726
998.727
998.729
998.73
998.731
998.732
998.733
998.734
998.735
998.736
998.737
998.738
998.739
998.739
998.739
998.74
998.74
998.739
998.739
998.739
998.738
998.737
998.736
998.734
998.733
998.731
998.728
998.725
998.727
998.724
998.723
998.721
998.72
998.719
998.718
998.718
998.718
998.717
998.718
998.718
998.718
998.719
998.719
998.72
998.721
998.722
998.723
998.724
998.725
998.726
998.727
998.728
998.729
998.73
998.731
998.732
998.733
998.734
998.735
998.736
998.736
998.737
998.737
998.738
998.738
998.738
998.738
998.737
998.737
998.736
998.736
998.734
998.733
998.732
998.73
998.728
998.725
998.722
998.733
998.73
998.729
998.727
998.725
998.724
998.723
998.723
998.722
998.722
998.722
998.722
998.722
998.722
998.723
998.723
998.724
998.724
998.725
998.726
998.727
998.728
998.728
998.729
998.73
998.731
998.732
998.733
998.733
998.734
998.735
998.735
998.736
998.736
998.736
998.736
998.736
998.736
998.736
998.736
998.735
998.734
998.733
998.732
998.731
998.729
998.727
998.725
998.722
998.72
998.739
998.736
998.734
998.732
998.731
998.729
998.728
998.727
998.726
998.726
998.725
998.725
998.725
998.725
998.726
998.726
998.726
998.727
998.727
998.728
998.728
998.729
998.73
998.73
998.731
998.732
998.732
998.733
998.733
998.734
998.734
998.735
998.735
998.735
998.735
998.735
998.735
998.735
998.735
998.734
998.733
998.732
998.731
998.73
998.729
998.727
998.725
998.723
998.72
998.717
998.745
998.741
998.739
998.737
998.735
998.734
998.733
998.731
998.73
998.73
998.729
998.729
998.728
998.728
998.728
998.728
998.729
998.729
998.729
998.73
998.73
998.73
998.731
998.731
998.732
998.732
998.733
998.733
998.733
998.734
998.734
998.734
998.734
998.734
998.734
998.734
998.734
998.734
998.733
998.732
998.732
998.731
998.729
998.728
998.727
998.725
998.723
998.721
998.718
998.715
998.75
998.746
998.744
998.742
998.74
998.738
998.737
998.735
998.734
998.733
998.733
998.732
998.732
998.731
998.731
998.731
998.731
998.731
998.731
998.731
998.731
998.732
998.732
998.732
998.733
998.733
998.733
998.733
998.734
998.734
998.734
998.734
998.734
998.734
998.734
998.733
998.733
998.732
998.732
998.731
998.73
998.729
998.728
998.726
998.725
998.723
998.721
998.719
998.716
998.713
998.754
998.751
998.749
998.746
998.744
998.742
998.741
998.739
998.738
998.737
998.736
998.735
998.734
998.734
998.734
998.733
998.733
998.733
998.733
998.733
998.733
998.733
998.733
998.733
998.733
998.733
998.734
998.734
998.734
998.734
998.734
998.734
998.733
998.733
998.733
998.732
998.732
998.731
998.731
998.73
998.729
998.728
998.726
998.725
998.723
998.721
998.719
998.717
998.714
998.712
998.759
998.755
998.753
998.75
998.748
998.746
998.744
998.743
998.741
998.74
998.739
998.738
998.737
998.737
998.736
998.735
998.735
998.735
998.735
998.734
998.734
998.734
998.734
998.734
998.734
998.734
998.734
998.734
998.734
998.734
998.733
998.733
998.733
998.733
998.732
998.732
998.731
998.73
998.73
998.729
998.727
998.726
998.725
998.723
998.722
998.72
998.718
998.716
998.713
998.71
998.763
998.759
998.757
998.754
998.752
998.75
998.748
998.746
998.744
998.743
998.742
998.741
998.74
998.739
998.738
998.738
998.737
998.737
998.736
998.736
998.736
998.735
998.735
998.735
998.735
998.735
998.734
998.734
998.734
998.734
998.733
998.733
998.733
998.732
998.732
998.731
998.73
998.729
998.729
998.728
998.726
998.725
998.724
998.722
998.72
998.719
998.717
998.714
998.712
998.709
998.766
998.763
998.76
998.758
998.755
998.753
998.751
998.749
998.747
998.746
998.745
998.743
998.742
998.741
998.74