/*--------------------------------*- C++ -*----------------------------------*\
  =========                 |
  \\      /  F ield         | OpenFOAM: The Open Source CFD Toolbox
   \\    /   O peration     | Website:  https://openfoam.org
    \\  /    A nd           | Version:  6
     \\/     M anipulation  |
\*---------------------------------------------------------------------------*/
FoamFile
{
    version     2.0;
    format      ascii;
    class       volVectorField;
    location    "0.55";
    object      U;
}
// * * * * * * * * * * * * * * * * * * * * * * * * * * * * * * * * * * * * * //

dimensions      [0 1 -1 0 0 0 0];

internalField   nonuniform List<vector> 
5600
(
(1.29053 0.00192184 3.7511e-19)
(1.07511 0.00249895 -6.44075e-18)
(0.991076 0.00268824 6.42612e-18)
(0.999885 0.00264921 0)
(1.00794 0.00283352 0)
(1.00443 0.00328669 0)
(0.998566 0.00382606 -1.19879e-17)
(0.993073 0.00439082 1.19607e-17)
(0.987231 0.00500738 0)
(0.980537 0.00569779 0)
(0.972915 0.00647036 0)
(0.964318 0.00733413 0)
(0.954642 0.00830273 0)
(0.943754 0.00939264 -2.36009e-17)
(0.931504 0.0106218 2.35481e-17)
(0.917725 0.0120081 -4.6992e-17)
(0.902229 0.0135644 4.68872e-17)
(0.884821 0.0152872 0)
(0.865307 0.0171342 -3.64691e-19)
(0.843542 0.0189689 0)
(1.29453 0.00370038 -3.6988e-19)
(1.0732 0.00588847 6.35159e-18)
(0.990775 0.00698947 -6.33951e-18)
(1.00082 0.00761367 0)
(1.00862 0.00850419 0)
(1.00484 0.00979751 2.44741e-17)
(0.998984 0.0112917 1.37518e-22)
(0.993554 0.0129143 -7.38705e-19)
(0.987771 0.0147035 1.12912e-22)
(0.981148 0.0166985 -2.35525e-17)
(0.973621 0.0189254 0)
(0.965147 0.0214141 -4.76607e-17)
(0.955624 0.0242035 4.68386e-17)
(0.944927 0.0273398 0)
(0.932916 0.0308735 0)
(0.919431 0.034854 0)
(0.904297 0.039316 0)
(0.887328 0.0442462 -4.64019e-17)
(0.868329 0.0495224 4.66766e-17)
(0.847067 0.0547942 4.55368e-17)
(1.29981 0.00435187 0)
(1.07285 0.00930831 0)
(0.990179 0.0116453 0)
(1.00127 0.0126117 0)
(1.00928 0.0140758 2.34529e-17)
(1.00549 0.0162208 -2.415e-17)
(0.999741 0.0186716 -1.46148e-18)
(0.994478 0.0213325 -7.29659e-19)
(0.988871 0.0242735 2.33149e-17)
(0.982446 0.0275545 -2.18254e-17)
(0.975157 0.031216 -1.45289e-18)
(0.966971 0.0353064 4.71499e-17)
(0.957799 0.0398884 -4.78047e-17)
(0.947529 0.0450357 1.44651e-18)
(0.936038 0.050829 4.62209e-17)
(0.923187 0.0573468 -9.37486e-17)
(0.908819 0.0646431 -1.44073e-18)
(0.892762 0.0726961 4.60184e-17)
(0.87482 0.0813074 -1.43598e-18)
(0.854679 0.0899308 -7.17321e-19)
(1.30647 0.00549706 0)
(1.07309 0.0123511 -1.44663e-18)
(0.989432 0.0157056 0)
(1.00154 0.017198 0)
(1.00999 0.0193345 0)
(1.00635 0.0223497 0)
(1.00082 0.0257589 1.43998e-18)
(0.995845 0.0294526 2.44557e-17)
(0.990544 0.0335291 -2.29945e-17)
(0.984462 0.0380684 -1.43576e-18)
(0.977572 0.043125 2.8687e-18)
(0.969859 0.0487644 0)
(0.961253 0.0550712 -4.43781e-17)
(0.951663 0.0621441 4.43344e-17)
(0.940995 0.0700908 4.57202e-17)
(0.929139 0.0790158 -4.56751e-17)
(0.915967 0.088992 9.26879e-17)
(0.90133 0.0999918 -9.11718e-17)
(0.885048 0.111752 1.42318e-18)
(0.866753 0.12356 1.42238e-18)
(1.31445 0.00671397 -5.61706e-18)
(1.07348 0.0151017 7.09268e-18)
(0.988575 0.0192962 -1.1349e-17)
(1.00186 0.021334 -1.13439e-17)
(1.01085 0.024168 2.26788e-17)
(1.00745 0.0280499 2.2669e-17)
(1.00224 0.0324049 -2.26595e-17)
(0.997658 0.037112 1.41563e-18)
(0.992785 0.0422921 1.41504e-18)
(0.987178 0.0480409 4.52625e-17)
(0.980839 0.0544246 -9.04867e-17)
(0.973776 0.0615235 1.41298e-18)
(0.965942 0.0694408 4.66177e-17)
(0.957279 0.0782963 1.41206e-18)
(0.947726 0.0882199 -4.37556e-17)
(0.937213 0.0993378 4.79692e-17)
(0.925651 0.111738 1.41025e-18)
(0.912925 0.125388 0)
(0.898889 0.139967 1.40904e-18)
(0.883156 0.15462 1.40884e-18)
(1.32364 0.00789066 5.49665e-18)
(1.07388 0.0175792 -5.55358e-18)
(0.987621 0.0224348 1.38942e-18)
(1.0023 0.0249589 0)
(1.01195 0.0284858 2.22391e-17)
(1.00884 0.0332287 -2.22437e-17)
(1.00403 0.0385123 1.39052e-18)
(0.999919 0.0442033 -4.72875e-17)
(0.995567 0.0504408 -2.78233e-18)
(0.990546 0.0573316 8.90478e-17)
(0.984889 0.0649504 -4.7316e-17)
(0.97863 0.0733893 -1.39193e-18)
(0.971753 0.0827659 -4.7335e-17)
(0.964235 0.0932161 -4.5952e-17)
(0.956056 0.104886 8.77425e-17)
(0.947194 0.117917 8.63669e-17)
(0.937608 0.132407 -9.05626e-17)
(0.927224 0.148319 8.77932e-17)
(0.915946 0.16528 -1.798e-16)
(0.903392 0.182314 8.78395e-17)
(1.33391 0.00907354 0)
(1.07411 0.0197208 0)
(0.986543 0.0249852 -1.35842e-18)
(1.00295 0.0279621 2.17535e-17)
(1.01336 0.0322148 -2.17727e-17)
(1.01056 0.0378281 -1.36196e-18)
(1.00617 0.0440221 -1.36318e-18)
(1.0026 0.0506574 1.36439e-18)
(0.998836 0.0578893 1.36559e-18)
(0.994484 0.0658323 0)
(0.98961 0.0745674 4.51437e-17)
(0.984282 0.0841954 1.81916e-22)
(0.978514 0.0948443 -4.2482e-17)
(0.972321 0.10666 -8.64103e-17)
(0.965731 0.119799 1.75717e-16)
(0.958771 0.134408 -8.65609e-17)
(0.951455 0.150591 8.80119e-17)
(0.943756 0.168308 -8.67115e-17)
(0.935634 0.187144 -8.81647e-17)
(0.92674 0.206034 8.6866e-17)
(1.34511 0.0106161 0)
(1.07379 0.0213227 1.32343e-18)
(0.985258 0.0266275 -2.12158e-17)
(1.00392 0.0302424 2.2578e-17)
(1.01512 0.0353485 -2.12832e-17)
(1.01258 0.0418413 2.39821e-17)
(1.00863 0.0489158 0)
(1.00562 0.05644 1.33663e-18)
(1.00249 0.0645791 0)
(0.998862 0.0734554 -1.34095e-18)
(0.994851 0.0831558 4.29798e-17)
(0.99055 0.0937878 -4.30491e-17)
(0.986008 0.105485 -8.62374e-17)
(0.981279 0.118396 8.50266e-17)
(0.976434 0.13268 0)
(0.971558 0.148483 0)
(0.96672 0.165909 8.67953e-17)
(0.961945 0.184918 1.573e-22)
(0.957261 0.205079 -8.70752e-17)
(0.952362 0.225304 8.85726e-17)
(1.35711 0.0141713 -4.46028e-18)
(1.07175 0.0213975 4.51026e-18)
(0.983789 0.0263631 0)
(1.0055 0.0317439 -1.94329e-18)
(1.01725 0.0380716 -2.07769e-17)
(1.01478 0.0453968 -2.2128e-17)
(1.01127 0.0532973 8.35041e-17)
(1.00885 0.0616571 -4.31596e-17)
(1.00637 0.0706152 -4.19519e-17)
(1.00351 0.0803038 4.33665e-17)
(1.00042 0.0908219 -8.43066e-17)
(0.997217 0.102281 1.69018e-16)
(0.993979 0.114811 1.58548e-22)
(0.990796 0.128559 -8.49162e-17)
(0.987786 0.143671 0)
(0.985089 0.160284 8.53265e-17)
(0.982835 0.178495 -1.71065e-16)
(0.981113 0.198276 8.57394e-17)
(0.980059 0.219208 0)
(0.979455 0.240201 0)
(1.37002 0.0217476 -5.57153e-18)
(1.06452 0.0174285 4.38384e-18)
(0.983211 0.0227935 0)
(1.00887 0.0326825 2.08103e-17)
(1.01966 0.0407887 -2.02439e-17)
(1.01688 0.0487147 -4.06162e-17)
(1.01395 0.0573166 -1.04636e-22)
(1.01218 0.0664623 8.17532e-17)
(1.01038 0.0761671 -8.20156e-17)
(1.00833 0.0865731 4.11397e-17)
(1.00621 0.0978049 -8.25446e-17)
(1.00415 0.109976 8.28111e-17)
(1.00225 0.12321 -8.30792e-17)
(1.00063 0.137635 8.33485e-17)
(0.999455 0.153377 8.36193e-17)
(0.998908 0.170547 -8.38915e-17)
(0.999196 0.189216 0)
(1.00051 0.209378 -8.44397e-17)
(1.0031 0.230762 8.47164e-17)
(1.00687 0.252311 8.49706e-17)
(0.81624 0.0205626 0)
(0.779181 0.0227509 0)
(0.734692 0.0252592 4.24563e-17)
(0.680744 0.0281338 -2.30452e-17)
(0.614637 0.0313744 -2.52002e-17)
(0.532954 0.0348193 4.16894e-17)
(0.432091 0.0379063 -1.54834e-17)
(0.308637 0.039303 3.49407e-17)
(0.161543 0.036348 0)
(0.0451129 0.0205645 0)
(0.820493 0.0596906 -1.84221e-17)
(0.784231 0.0663527 -5.93775e-17)
(0.740527 0.0740158 -2.13554e-17)
(0.687499 0.0828197 2.31827e-17)
(0.622447 0.0927685 2.53465e-17)
(0.54191 0.103365 -5.58972e-17)
(0.442156 0.112915 4.66959e-17)
(0.319526 0.117336 -8.77666e-17)
(0.171954 0.108216 -1.00509e-17)
(0.0512646 0.0614286 6.42574e-17)
(0.829596 0.0979851 1.84982e-17)
(0.79481 0.108962 -1.98745e-17)
(0.75262 0.121614 4.28899e-17)
(0.701375 0.136147 4.65654e-17)
(0.638367 0.152563 -5.09209e-17)
(0.560045 0.170025 -2.80778e-17)
(0.462421 0.185733 3.12831e-17)
(0.341199 0.192889 -5.29274e-17)
(0.192648 0.177288 8.08422e-17)
(0.0635758 0.100803 -1.52778e-16)
(0.843941 0.134582 3.70228e-17)
(0.811188 0.14971 0)
(0.771118 0.167143 0)
(0.7224 0.187114 -4.66005e-17)
(0.66229 0.209628 5.09591e-17)
(0.587105 0.233503 1.98844e-21)
(0.49247 0.254843 0)
(0.373119 0.264246 7.06332e-17)
(0.223039 0.242106 -6.06832e-17)
(0.08165 0.13749 1.88208e-16)
(0.863311 0.168233 -3.69274e-17)
(0.833059 0.187213 0)
(0.795618 0.209103 8.56033e-17)
(0.750061 0.234118 0)
(0.693581 0.262256 5.08029e-17)
(0.622307 0.29199 5.60225e-17)
(0.531368 0.318358 0)
(0.414257 0.329485 1.40764e-16)
(0.262078 0.300881 -2.01526e-17)
(0.104801 0.170385 -7.02921e-17)
(0.887073 0.198028 1.88571e-21)
(0.859696 0.220456 -1.57718e-16)
(0.8253 0.246379 -2.51251e-21)
(0.783429 0.27594 0)
(0.731169 0.309126 -5.04697e-17)
(0.664422 0.344062 -5.5634e-17)
(0.577728 0.374748 0)
(0.463111 0.387 -1.39683e-16)
(0.30829 0.352027 -1.59862e-16)
(0.132097 0.19854 2.32181e-17)
(0.914331 0.223339 7.17682e-22)
(0.890087 0.24877 1.05276e-21)
(0.859049 0.278248 1.68518e-16)
(0.821263 0.311805 -1.22115e-21)
(0.773657 0.349399 -9.99039e-17)
(0.711873 0.388791 -1.10084e-16)
(0.629783 0.422974 -3.06312e-17)
(0.517781 0.435637 3.4507e-17)
(0.35984 0.394354 1.18389e-16)
(0.162374 0.221204 2.28999e-16)
(0.944062 0.243836 -1.66461e-21)
(0.923018 0.271866 7.71521e-17)
(0.895517 0.304424 -1.66365e-16)
(0.862069 0.341419 -4.5117e-17)
(0.819365 0.382757 2.46369e-16)
(0.762785 0.425807 1.08534e-16)
(0.685491 0.462581 -1.20705e-16)
(0.576139 0.474848 0)
(0.414717 0.427266 3.88044e-17)
(0.194329 0.237961 -4.04813e-16)
(0.975194 0.259613 -1.17025e-21)
(0.956882 0.289846 -7.5957e-17)
(0.932914 0.325069 3.79402e-21)
(0.903916 0.365009 -8.87609e-17)
(0.866252 0.409483 9.68867e-17)
(0.8151 0.455444 5.33202e-17)
(0.742874 0.493946 5.92613e-17)
(0.636342 0.505055 -3.33173e-17)
(0.471172 0.451155 3.80109e-17)
(0.22668 0.248912 1.75995e-16)
(1.00576 0.272233 -6.94905e-17)
(0.989064 0.304217 -7.4557e-17)
(0.968782 0.341736 8.03224e-17)
(0.944394 0.38414 8.70366e-17)
(0.912054 0.431027 -1.89928e-16)
(0.86678 0.478852 0)
(0.800029 0.517746 0)
(0.696309 0.526443 -3.25678e-17)
(0.52663 0.465955 3.7106e-17)
(0.257443 0.253829 0)
(1.03403 0.292124 6.79614e-17)
(1.01815 0.325033 7.29963e-17)
(1.00143 0.362839 0)
(0.980886 0.405385 -8.53792e-17)
(0.952941 0.451462 0)
(0.912212 0.496773 -1.02726e-16)
(0.849057 0.530927 -5.71372e-17)
(0.745973 0.53282 -6.43221e-17)
(0.570876 0.464998 -1.47006e-16)
(0.281097 0.249321 1.70542e-16)
(1.06484 0.310033 1.54137e-21)
(1.0524 0.343426 -1.48455e-16)
(1.03911 0.380663 2.12611e-21)
(1.02195 0.422046 8.68626e-17)
(0.997295 0.465488 0)
(0.95908 0.505899 1.04581e-16)
(0.896466 0.532509 0)
(0.790362 0.524903 1.31105e-16)
(0.607175 0.448498 1.46276e-20)
(0.298479 0.235078 -1.74037e-16)
(1.09706 0.323804 7.00847e-17)
(1.08848 0.356678 -7.52943e-17)
(1.07846 0.392671 2.4366e-16)
(1.06421 0.431905 -8.8146e-17)
(1.04192 0.471578 -9.63389e-17)
(1.00479 0.505958 -5.30929e-17)
(0.940944 0.524098 2.27431e-21)
(0.830084 0.506558 6.66209e-17)
(0.637849 0.422117 2.66788e-16)
(0.311513 0.215163 4.42779e-17)
(1.13034 0.332638 -1.41839e-16)
(1.12531 0.364271 0)
(1.11817 0.398281 -4.33075e-21)
(1.10619 0.434406 8.92327e-17)
(1.08523 0.469287 2.4389e-16)
(1.04782 0.49677 5.37739e-17)
(0.98118 0.506005 1.19785e-16)
(0.864181 0.478894 -1.01296e-16)
(0.662245 0.388002 -1.93299e-16)
(0.3201 0.191455 1.79755e-16)
(1.16393 0.336234 7.15911e-17)
(1.16193 0.365968 7.692e-17)
(1.15705 0.397269 -1.66003e-16)
(1.14645 0.429405 -4.50583e-17)
(1.12556 0.458598 -1.97067e-16)
(1.08629 0.478486 -1.62988e-16)
(1.01517 0.478622 -2.42106e-16)
(0.89063 0.442663 1.36549e-16)
(0.678635 0.347426 0)
(0.32363 0.165137 -2.0467e-16)
(1.19684 0.334385 1.08122e-16)
(1.19718 0.36163 0)
(1.19372 0.389577 0)
(1.1834 0.416997 0)
(1.16117 0.439835 0)
(1.11837 0.451733 1.09475e-16)
(1.04108 0.442946 1.2199e-16)
(0.907833 0.399253 0)
(0.68594 0.302061 0)
(0.321908 0.13742 -9.17574e-17)
(1.22801 0.327115 -3.61941e-17)
(1.22984 0.351362 -8.42863e-22)
(1.22677 0.375415 -4.19724e-17)
(1.21547 0.397574 4.55754e-17)
(1.19038 0.413659 -4.98474e-17)
(1.1424 0.417522 1.3747e-16)
(1.05748 0.400392 -3.06426e-17)
(0.914763 0.350451 6.91571e-17)
(0.683761 0.253817 -1.98159e-17)
(0.315111 0.1095 9.22682e-17)
(1.25637 0.31468 7.25025e-17)
(1.2587 0.335529 -3.89523e-17)
(1.25486 0.355279 0)
(1.24118 0.371832 -4.56517e-17)
(1.2117 0.381038 0)
(1.15703 0.377158 -5.5084e-17)
(1.06334 0.352629 -3.0695e-17)
(0.910941 0.298204 3.46408e-17)
(0.672248 0.204615 0)
(0.303692 0.0824551 -1.15566e-17)
(1.28093 0.297541 -5.43167e-17)
(1.28267 0.314719 3.89084e-17)
(1.27683 0.3299 0)
(1.25943 0.340693 0)
(1.22417 0.343141 4.98712e-17)
(1.16161 0.332105 -2.75086e-17)
(1.05849 0.301412 -3.06573e-17)
(0.896751 0.244465 -6.91998e-17)
(0.652241 0.156286 3.96569e-17)
(0.288367 0.0572334 -5.19315e-17)
(1.30098 0.276326 5.41141e-17)
(1.30116 0.289574 -5.51536e-22)
(1.29218 0.299934 -2.09143e-17)
(1.26978 0.304874 0)
(1.22746 0.300827 -2.48361e-17)
(1.156 0.283452 -1.36968e-17)
(1.04303 0.248144 3.81607e-17)
(0.872603 0.190914 8.61192e-18)
(0.624373 0.110505 -4.44099e-17)
(0.269606 0.034652 5.16827e-17)
(1.04662 0.267956 -4.18365e-16)
(1.07533 0.284275 1.03486e-16)
(1.1046 0.297187 0)
(1.13477 0.305878 1.02362e-16)
(1.16547 0.310097 -3.22294e-23)
(1.19578 0.30966 -1.56502e-18)
(1.2248 0.304533 7.78534e-19)
(1.25166 0.294875 -5.0005e-17)
(1.27551 0.28101 4.98473e-17)
(1.29559 0.263502 -2.46764e-17)
(1.05596 0.255158 2.08638e-16)
(1.08246 0.268841 0)
(1.10937 0.279839 0)
(1.13705 0.287363 1.00623e-16)
(1.16538 0.291125 1.57322e-18)
(1.19353 0.290955 -7.81789e-19)
(1.22074 0.286806 7.77841e-19)
(1.24623 0.278779 4.8806e-17)
(1.26931 0.267111 -4.9428e-17)
(1.28914 0.252318 2.46613e-17)
(1.06504 0.244388 0)
(1.08902 0.255833 -1.0312e-16)
(1.11351 0.264857 1.02185e-16)
(1.13873 0.271027 -1.01378e-16)
(1.16468 0.274066 0)
(1.19065 0.273823 -7.82093e-19)
(1.21595 0.270248 -9.88486e-17)
(1.23995 0.263408 0)
(1.26209 0.253478 0)
(1.28147 0.240919 -2.4689e-17)
(1.07315 0.23406 0)
(1.09503 0.243509 1.11731e-21)
(1.11728 0.250822 -1.02102e-16)
(1.14018 0.255781 1.01339e-16)
(1.16382 0.258142 7.86615e-19)
(1.1876 0.257772 -1.00922e-16)
(1.21097 0.254622 -2.64466e-22)
(1.23339 0.248733 0)
(1.25441 0.240235 0)
(1.27316 0.229525 0)
(1.07995 0.22404 -1.03726e-16)
(1.10004 0.231859 2.05694e-16)
(1.12037 0.237764 7.97004e-19)
(1.14121 0.241684 -1.02093e-16)
(1.16274 0.243428 -7.86625e-19)
(1.18448 0.24289 -1.00174e-16)
(1.20598 0.240031 1.50404e-16)
(1.22682 0.234879 -3.88324e-19)
(1.24664 0.227533 -4.91913e-17)
(1.2646 0.21833 -2.47452e-17)
(1.08548 0.214282 2.07062e-16)
(1.10401 0.220816 -1.02711e-16)
(1.12266 0.225602 1.01934e-16)
(1.14171 0.228668 1.00472e-16)
(1.16139 0.229878 1.02264e-16)
(1.18128 0.22916 9.94254e-17)
(1.20106 0.226493 -4.99057e-17)
(1.22037 0.221901 -3.88651e-19)
(1.23897 0.215466 3.87441e-19)
(1.25605 0.207479 2.4773e-17)
(1.08988 0.204775 -1.0374e-16)
(1.107 0.210275 -1.02174e-16)
(1.12418 0.214178 -1.01851e-16)
(1.14169 0.216564 -1.01226e-16)
(1.15973 0.217341 -9.9905e-17)
(1.17799 0.216467 9.86762e-17)
(1.1962 0.213939 -4.91564e-17)
(1.2141 0.209782 0)
(1.2315 0.20407 9.93577e-17)
(1.24767 0.197062 0)
(1.09328 0.195532 0)
(1.10913 0.200187 1.02439e-16)
(1.125 0.203389 -1.01767e-16)
(1.14116 0.205241 7.90519e-19)
(1.15777 0.205682 -1.02266e-16)
(1.17459 0.20469 -1.00277e-16)
(1.19141 0.202275 5.07481e-17)
(1.20801 0.198469 -4.98316e-17)
(1.22429 0.193341 -9.94583e-17)
(1.23954 0.187128 0)
(1.0958 0.186568 -1.02948e-16)
(1.11049 0.190526 0)
(1.12521 0.19317 1.01684e-16)
(1.14017 0.194606 1.0194e-16)
(1.15554 0.194793 1.15566e-22)
(1.17109 0.193722 9.95271e-17)
(1.18667 0.191414 0)
(1.20211 0.187902 4.98734e-17)
(1.21733 0.183255 4.99739e-17)
(1.23171 0.177693 -2.50517e-17)
(1.09755 0.177896 1.02755e-16)
(1.1112 0.181278 -1.02168e-16)
(1.12488 0.183475 1.01601e-16)
(1.13879 0.184587 -1.00322e-16)
(1.15305 0.184586 1.99816e-16)
(1.1675 0.183472 -9.8777e-17)
(1.18198 0.181269 -7.81712e-19)
(1.19637 0.178014 -3.89961e-19)
(1.21062 0.173773 -4.94407e-17)
(1.22417 0.168753 2.48856e-17)
(1.09865 0.169524 0)
(1.11135 0.172429 1.02034e-16)
(1.1241 0.174266 -1.01518e-16)
(1.13707 0.175126 -7.89629e-19)
(1.15036 0.17499 -9.91222e-17)
(1.16382 0.173861 -7.84218e-19)
(1.17733 0.171766 -7.8218e-19)
(1.19079 0.168741 7.80591e-19)
(1.20416 0.164851 4.98804e-17)
(1.21693 0.160291 2.49139e-17)
(1.09918 0.161457 1.0277e-16)
(1.11103 0.163965 -3.98048e-19)
(1.12294 0.165512 0)
(1.13507 0.166177 0)
(1.1475 0.165946 7.86684e-19)
(1.16008 0.164825 -5.17755e-17)
(1.17273 0.16284 1.26814e-23)
(1.18534 0.160026 5.03901e-17)
(1.19792 0.156445 3.90089e-19)
(1.20997 0.152281 -2.49422e-17)
(1.09923 0.153694 -1.0218e-16)
(1.11032 0.155872 -1.01765e-16)
(1.12147 0.157184 -1.01351e-16)
(1.13285 0.157698 -7.89035e-19)
(1.1445 0.157404 1.2529e-23)
(1.15631 0.156308 5.02236e-17)
(1.16818 0.154434 7.83158e-19)
(1.18004 0.151815 9.44386e-23)
(1.19189 0.148512 0)
(1.20328 0.144694 0)
(1.09888 0.146233 -1.02387e-16)
(1.10928 0.148136 2.03659e-16)
(1.11975 0.149257 1.01269e-16)
(1.13045 0.149655 0)
(1.14141 0.149322 -9.99113e-17)
(1.15251 0.148263 4.94556e-17)
(1.16369 0.1465 0)
(1.17488 0.144064 -5.04749e-17)
(1.18607 0.141011 -2.46254e-17)
(1.19686 0.137502 0)
(1.0982 0.139069 1.02197e-16)
(1.10797 0.140742 -1.01894e-16)
(1.11783 0.141709 0)
(1.12792 0.142018 1.00132e-16)
(1.13825 0.141663 1.00699e-16)
(1.14872 0.140649 -1.00515e-16)
(1.15928 0.138996 -4.93995e-17)
(1.16985 0.136731 0)
(1.18044 0.133907 2.50416e-17)
(1.19068 0.130675 0)
(1.09725 0.132193 1.0161e-16)
(1.10645 0.133675 0)
(1.11576 0.134517 0)
(1.1253 0.134759 -1.00095e-16)
(1.13506 0.134395 -1.05358e-23)
(1.14496 0.133432 4.87035e-17)
(1.15495 0.131886 5.09991e-17)
(1.16497 0.129782 -3.91936e-19)
(1.17501 0.127169 1.95841e-19)
(1.18474 0.124187 1.95751e-19)
(1.09608 0.125598 -2.02843e-16)
(1.10477 0.12692 1.01231e-16)
(1.11357 0.127661 7.89215e-19)
(1.12261 0.127853 -7.87853e-19)
(1.13186 0.127491 -5.035e-17)
(1.14124 0.126581 0)
(1.15072 0.125139 0)
(1.16023 0.123185 5.02104e-17)
(1.16978 0.120766 0)
(1.17904 0.118013 0)
(1.09473 0.119274 1.01629e-16)
(1.10295 0.120462 -1.01493e-16)
(1.11131 0.121121 7.8857e-19)
(1.11989 0.121276 -1.02381e-16)
(1.12867 0.120923 5.11371e-17)
(1.13758 0.120069 0)
(1.14659 0.118726 -7.85565e-19)
(1.15563 0.116913 -4.98601e-17)
(1.16473 0.114674 1.96239e-19)
(1.17356 0.112131 1.96198e-19)
(1.09324 0.113211 -1.0144e-16)
(1.10105 0.114287 3.944e-19)
(1.10899 0.114879 -1.00855e-16)
(1.11715 0.115007 1.00768e-16)
(1.12551 0.11467 7.86723e-19)
(1.134 0.11387 -7.86341e-19)
(1.14257 0.112622 4.95214e-17)
(1.1512 0.110942 7.85866e-19)
(1.15987 0.10887 0)
(1.16831 0.106518 0)
(1.09166 0.107398 -3.937e-19)
(1.09909 0.108379 1.01227e-16)
(1.10665 0.108918 1.00772e-16)
(1.11443 0.109028 -1.01517e-16)
(1.1224 0.108708 5.11375e-17)
(1.13049 0.107964 0)
(1.13868 0.106806 -5.03385e-17)
(1.14691 0.10525 -3.9326e-19)
(1.1552 0.103331 3.93274e-19)
(1.16327 0.101157 0)
(1.09 0.101825 3.93505e-19)
(1.09708 0.102726 -1.01095e-16)
(1.10431 0.10322 -1.0069e-16)
(1.11174 0.103319 1.00691e-16)
(1.11935 0.10302 -1.00702e-16)
(1.12709 0.10233 0)
(1.13491 0.101256 0)
(1.14279 0.0998158 -3.93593e-19)
(1.15071 0.0980408 -2.49983e-17)
(1.15845 0.0960298 2.53963e-17)
(1.0883 0.0964793 1.00094e-16)
(1.09507 0.0973128 -1.00177e-16)
(1.10198 0.0977709 1.00608e-16)
(1.10909 0.0978625 -5.11128e-17)
(1.11638 0.0975865 7.86766e-19)
(1.12378 0.0969478 0)
(1.13128 0.0959552 -5.04006e-17)
(1.13882 0.0946224 -3.93925e-19)
(1.14642 0.0929804 2.56149e-17)
(1.15384 0.0911207 -2.52283e-17)
(1.08657 0.0913513 0)
(1.09305 0.0921267 1.00438e-16)
(1.09968 0.0925552 -1.00525e-16)
(1.1065 0.0926434 5.10933e-17)
(1.11349 0.0923907 4.95646e-17)
(1.12059 0.0918018 0)
(1.12778 0.0908851 4.96437e-17)
(1.13502 0.089653 3.94266e-19)
(1.14231 0.0881346 1.97242e-19)
(1.14944 0.086415 1.97323e-19)
(1.08483 0.0864296 3.91078e-19)
(1.09105 0.0871549 -3.91825e-19)
(1.09742 0.087559 1.00443e-16)
(1.10398 0.0876463 7.85746e-19)
(1.11069 0.0874171 -5.03514e-17)
(1.11751 0.0868758 4.96225e-17)
(1.12442 0.0860303 -4.96743e-17)
(1.13137 0.0848922 2.40702e-17)
(1.13838 0.0834887 5.92324e-19)
(1.14524 0.0818989 -1.9755e-19)
(1.08311 0.0817037 9.95417e-17)
(1.08909 0.0823852 3.91313e-19)
(1.09522 0.0827687 0)
(1.10153 0.0828571 0)
(1.10798 0.082651 2.20512e-23)
(1.11455 0.0821549 -5.04271e-17)
(1.1212 0.0813761 1.00199e-16)
(1.12789 0.0803257 3.94946e-19)
(1.13463 0.079029 1.97646e-19)
(1.14124 0.0775599 1.28554e-17)
(1.08141 0.0771629 -9.93589e-17)
(1.08717 0.0778059 -3.90802e-19)
(1.09308 0.0781717 -5.01391e-17)
(1.09916 0.0782624 0)
(1.10538 0.0780787 5.03516e-17)
(1.11171 0.0776253 0)
(1.11812 0.0769091 -4.97355e-17)
(1.12457 0.0759405 -2.64826e-17)
(1.13107 0.0747432 3.95693e-19)
(1.13744 0.0733861 1.2874e-23)
(1.07974 0.0727971 -9.99541e-17)
(1.0853 0.0734056 3.90292e-19)
(1.091 0.073756 5.00981e-17)
(1.09688 0.0738495 -7.84843e-19)
(1.10289 0.0736873 7.86748e-19)
(1.109 0.073274 0)
(1.11518 0.0726163 -7.89937e-19)
(1.12141 0.071724 3.95602e-19)
(1.12768 0.0706193 1.98051e-19)
(1.13384 0.0693664 -1.24886e-17)
(1.07811 0.0685963 9.89945e-17)
(1.08349 0.0691734 3.89783e-19)
(1.08901 0.06951 -7.82138e-19)
(1.09469 0.0696066 1.56909e-18)
(1.1005 0.0694648 -7.86748e-19)
(1.10641 0.0690892 0)
(1.11239 0.0684861 -2.52937e-17)
(1.11841 0.0676649 0)
(1.12447 0.0666465 0)
(1.13042 0.0654905 1.27014e-17)
(1.07654 0.0645507 4.96002e-17)
(1.08175 0.065099 0)
(1.08709 0.0654228 0)
(1.0926 0.0655225 -7.84239e-19)
(1.09823 0.0653997 -4.95649e-17)
(1.10395 0.0650593 0)
(1.10973 0.0645071 2.61002e-17)
(1.11556 0.0637523 -1.18881e-18)
(1.12142 0.0628143 3.96912e-19)
(1.12719 0.0617487 -1.27161e-17)
(1.07502 0.060651 -9.94057e-17)
(1.08007 0.0611723 3.88768e-19)
(1.08526 0.0614841 7.80856e-19)
(1.0906 0.0615864 -5.174e-17)
(1.09606 0.0614814 1.02277e-16)
(1.10161 0.0611736 -7.89243e-19)
(1.10722 0.060669 2.53249e-17)
(1.11287 0.059976 -3.96603e-19)
(1.11855 0.059113 1.98662e-19)
(1.12414 0.0581318 1.98919e-19)
(1.07356 0.0568882 4.90329e-17)
(1.07847 0.0573838 3.88262e-19)
(1.08352 0.0576838 0)
(1.08871 0.0577884 4.93691e-17)
(1.09401 0.0576996 -4.95648e-17)
(1.0994 0.0574222 2.52641e-17)
(1.10484 0.0569618 1.7076e-24)
(1.11033 0.0563265 -3.9694e-19)
(1.11584 0.0555336 3.97729e-19)
(1.12127 0.0546311 0)
(1.07217 0.0532534 -3.85379e-19)
(1.07695 0.0537242 3.87757e-19)
(1.08186 0.0540127 0)
(1.08691 0.0541187 -5.01334e-17)
(1.09207 0.0540448 7.86738e-19)
(1.09731 0.0537954 -5.13348e-17)
(1.10261 0.0533762 -2.53561e-17)
(1.10794 0.0527947 -2.58231e-17)
(1.11329 0.0520673 1.99071e-19)
(1.11857 0.0512385 1.9938e-19)
(1.07084 0.0497381 -4.96233e-17)
(1.0755 0.0501848 4.99554e-17)
(1.08029 0.0504616 0)
(1.08522 0.0505683 5.0897e-17)
(1.09024 0.0505077 -7.86741e-19)
(1.09534 0.0502843 2.52809e-17)
(1.1005 0.0499034 0)
(1.10569 0.0493722 2.50498e-17)
(1.1109 0.0487059 5.97822e-19)
(1.11605 0.047946 -1.99611e-19)
(1.06959 0.0463342 4.87649e-17)
(1.07414 0.0467571 3.8671e-19)
(1.07882 0.0470219 7.78298e-19)
(1.08362 0.0471285 -7.8273e-19)
(1.08853 0.0470799 0)
(1.0935 0.0468803 2.52893e-17)
(1.09853 0.0465349 -2.61808e-17)
(1.10359 0.0460507 2.5867e-17)
(1.10867 0.0454418 1.99481e-19)
(1.11368 0.0447465 1.29897e-17)
(1.06841 0.0430337 -4.90593e-17)
(1.07286 0.043433 -4.94395e-17)
(1.07743 0.0436854 0)
(1.08213 0.0437911 0)
(1.08692 0.0437529 0)
(1.09178 0.0435752 -5.05954e-17)
(1.09669 0.0432629 7.93844e-19)
(1.10163 0.0428226 -2.66856e-17)
(1.10659 0.0422675 3.99372e-19)
(1.11148 0.0416329 -1.28047e-17)
(1.0673 0.039829 -3.82536e-19)
(1.07166 0.0402046 3.85746e-19)
(1.07614 0.0404442 -7.77022e-19)
(1.08074 0.040548 7.82121e-19)
(1.08543 0.040519 7.86727e-19)
(1.09018 0.0403614 -7.90814e-19)
(1.09498 0.0400798 2.46244e-17)
(1.09981 0.0396806 3.98636e-19)
(1.10465 0.039176 3.99785e-19)
(1.10944 0.0385984 0)
(1.06627 0.0367127 4.84992e-17)
(1.07055 0.0370645 3.85246e-19)
(1.07494 0.0372907 2.48444e-17)
(1.07945 0.0373918 7.81812e-19)
(1.08404 0.0373706 -4.8967e-24)
(1.0887 0.0372314 -7.91076e-19)
(1.0934 0.0369785 0)
(1.09813 0.0366177 0)
(1.10286 0.0361606 1.28063e-17)
(1.10754 0.0356368 0)
(1.06532 0.0336777 3.81189e-19)
(1.06952 0.0340054 -3.84746e-19)
(1.07383 0.0342177 -2.55997e-17)
(1.07825 0.0343152 4.70839e-24)
(1.08276 0.0343007 7.86724e-19)
(1.08733 0.0341782 2.53228e-17)
(1.09194 0.0339519 2.54502e-17)
(1.09658 0.0336273 -3.9931e-19)
(1.10121 0.0332149 -1.24189e-17)
(1.1058 0.0327418 0)
(1.06444 0.030717 -3.80498e-19)
(1.06857 0.0310204 3.84248e-19)
(1.07281 0.0312182 -2.48036e-17)
(1.07716 0.0313112 0)
(1.08159 0.0313022 0)
(1.08608 0.031195 0)
(1.09061 0.0309936 -2.54659e-17)
(1.09515 0.030703 -1.31885e-17)
(1.09971 0.0303328 4.01028e-19)
(1.10421 0.0299078 0)
(1.06363 0.027824 -3.79808e-19)
(1.0677 0.0281027 3.8375e-19)
(1.07188 0.0282854 2.40088e-17)
(1.07616 0.0283731 4.53749e-24)
(1.08052 0.0283686 7.86714e-19)
(1.08494 0.0282754 0)
(1.08939 0.0280972 7.96297e-19)
(1.09386 0.0278386 1.15998e-17)
(1.09833 0.0275085 -1.24447e-17)
(1.10276 0.027129 0)
(1.0629 0.0249923 0)
(1.06692 0.0252458 2.45281e-17)
(1.07104 0.0254129 2.47629e-17)
(1.07526 0.0254946 -7.80591e-19)
(1.07955 0.0254936 7.86708e-19)
(1.08391 0.0254131 0)
(1.08829 0.0252566 1.35455e-17)
(1.09269 0.0250284 -1.20101e-18)
(1.09709 0.0247362 1.30604e-17)
(1.10145 0.0244001 2.01477e-19)
(1.06225 0.0222155 -3.78435e-19)
(1.06621 0.0224434 -2.41137e-17)
(1.07029 0.0225944 -2.39693e-17)
(1.07445 0.0226694 -4.40026e-24)
(1.07869 0.0226709 -7.86702e-19)
(1.08298 0.0226021 0)
(1.08731 0.0224661 -1.35538e-17)
(1.09165 0.0222666 4.0068e-19)
(1.09599 0.0220106 6.03415e-19)
(1.10028 0.0217157 -2.01713e-19)
(1.06167 0.0194874 3.77752e-19)
(1.06559 0.0196894 -3.82263e-19)
(1.06962 0.0198237 0)
(1.07374 0.0198913 0)
(1.07793 0.0198948 0)
(1.08217 0.0198367 -1.26823e-17)
(1.08644 0.0197198 -1.27644e-17)
(1.09073 0.0195476 -4.01018e-19)
(1.09501 0.0193262 2.01349e-19)
(1.09925 0.0190709 2.01949e-19)
(1.06117 0.0168022 -3.7707e-19)
(1.06505 0.0169777 3.81769e-19)
(1.06904 0.0170949 1.31229e-17)
(1.07312 0.0171547 -1.32545e-17)
(1.07727 0.0171593 0)
(1.08146 0.0171111 2.5373e-17)
(1.08569 0.0170124 1.27723e-17)
(1.08993 0.0168663 6.02044e-18)
(1.09416 0.016678 -6.24826e-18)
(1.09835 0.0164606 2.02186e-19)
(1.06074 0.0141539 -1.24209e-17)
(1.06459 0.0143026 1.25821e-17)
(1.06855 0.0144023 -1.23408e-17)
(1.07259 0.0144538 2.41604e-17)
(1.0767 0.0144589 7.86682e-19)
(1.08086 0.0144198 -2.53813e-17)
(1.08505 0.0143385 6.39009e-18)
(1.08924 0.0142174 -6.829e-18)
(1.09343 0.0140609 6.86007e-18)
(1.09758 0.01388 0)
(1.06038 0.0115368 1.23985e-17)
(1.06421 0.0116584 -3.80786e-19)
(1.06814 0.0117402 -7.70664e-19)
(1.07216 0.011783 -1.16859e-17)
(1.07624 0.0117882 0)
(1.08036 0.0117576 1.26948e-17)
(1.08452 0.0116927 -7.19329e-18)
(1.08867 0.0115956 -5.22665e-18)
(1.09283 0.0114698 -6.05932e-19)
(1.09694 0.0113242 2.02661e-19)
(1.0601 0.00894524 -1.20012e-17)
(1.06391 0.00903955 -2.02246e-24)
(1.06782 0.00910326 7.70031e-19)
(1.07181 0.00913699 -1.55751e-18)
(1.07587 0.00914188 1.57333e-18)
(1.07997 0.00911917 -7.14318e-18)
(1.08409 0.00907008 5.59824e-18)
(1.08822 0.00899611 3.62155e-18)
(1.09234 0.00889996 3.84157e-18)
(1.09643 0.00878849 -2.02899e-19)
(1.05989 0.00637361 1.16053e-17)
(1.06369 0.00644035 -1.17738e-17)
(1.06758 0.00648572 0)
(1.07156 0.00651012 0)
(1.07559 0.00651424 7.86653e-19)
(1.07967 0.00649891 5.55762e-18)
(1.08377 0.00646495 -6.40194e-18)
(1.08788 0.00641337 2.81918e-18)
(1.09198 0.00634607 -3.03599e-18)
(1.09605 0.00626786 2.03138e-19)
(1.05974 0.00381622 3.7369e-19)
(1.06354 0.00385505 -3.79313e-19)
(1.06742 0.00388173 3.07507e-18)
(1.07139 0.00389635 -7.78136e-19)
(1.07541 0.00389921 3.14659e-18)
(1.07947 0.00389074 -2.38262e-18)
(1.08356 0.00387137 0)
(1.08766 0.00384165 -4.03084e-19)
(1.09174 0.00380265 4.05223e-19)
(1.09579 0.00375717 -8.13509e-19)
(1.05967 0.00126916 -3.74048e-19)
(1.06346 0.00128094 3.79903e-19)
(1.06734 0.0012892 -3.85192e-18)
(1.0713 0.00129386 7.8017e-19)
(1.07532 0.00129497 -1.57811e-18)
(1.07938 0.00129261 1.59392e-18)
(1.08346 0.00128687 0)
(1.08754 0.00127789 -4.04738e-19)
(1.09162 0.00126596 2.0349e-19)
(1.09566 0.00125196 1.02145e-18)
(1.37993 0.0211391 0)
(1.05184 0.0128261 0)
(0.986093 0.0203681 0)
(1.01417 0.0336801 0)
(1.02152 0.0426155 0)
(1.01828 0.0505075 0)
(1.01618 0.0593186 0)
(1.01506 0.0687818 0)
(1.01384 0.0787344 0)
(1.0125 0.0893183 0)
(1.01123 0.100679 0)
(1.01013 0.112924 0)
(1.00932 0.126161 0)
(1.00893 0.140499 0)
(1.00912 0.156043 0)
(1.01012 0.172876 0)
(1.01218 0.191034 0)
(1.01565 0.210442 0)
(1.02105 0.230765 0)
(1.02809 0.250694 0)
(1.38488 0.0151816 0)
(1.04504 0.0152531 0)
(0.987146 0.0226907 0)
(1.01663 0.0340216 0)
(1.02244 0.0429367 0)
(1.01923 0.0512129 0)
(1.01777 0.0601391 0)
(1.01716 0.0696051 0)
(1.01643 0.0795342 0)
(1.01568 0.0900445 0)
(1.01508 0.101256 0)
(1.01473 0.11326 0)
(1.01474 0.126146 0)
(1.01525 0.140002 0)
(1.01644 0.154901 0)
(1.01852 0.170893 0)
(1.02174 0.187962 0)
(1.02645 0.205944 0)
(1.03305 0.224282 0)
(1.04075 0.241427 0)
(1.38875 0.0109482 0)
(1.04186 0.0171601 0)
(0.986786 0.0244987 0)
(1.01748 0.034117 0)
(1.02298 0.0429988 0)
(1.02001 0.0516025 0)
(1.01909 0.060595 0)
(1.01897 0.0700169 0)
(1.01873 0.0798751 0)
(1.01854 0.0902617 0)
(1.01857 0.10127 0)
(1.0189 0.112978 0)
(1.01965 0.125456 0)
(1.02096 0.138769 0)
(1.023 0.152965 0)
(1.02596 0.168057 0)
(1.03007 0.183993 0)
(1.03563 0.200562 0)
(1.04296 0.217164 0)
(1.05135 0.232355 0)
(1.39228 0.00909208 0)
(1.04046 0.0175143 0)
(0.986148 0.0250549 0)
(1.01777 0.0340381 0)
(1.02337 0.0429318 0)
(1.02067 0.0516994 0)
(1.02018 0.060716 0)
(1.02052 0.0700854 0)
(1.02077 0.0798502 0)
(1.0211 0.0900848 0)
(1.0217 0.100865 0)
(1.02266 0.112255 0)
(1.02407 0.12431 0)
(1.02607 0.137077 0)
(1.02882 0.150579 0)
(1.03251 0.164808 0)
(1.03732 0.179688 0)
(1.0435 0.195 0)
(1.0513 0.210176 0)
(1.06018 0.223845 0)
(1.39566 0.00826458 0)
(1.0399 0.0173625 0)
(0.985648 0.0250895 0)
(1.01796 0.0338283 0)
(1.02374 0.0426869 0)
(1.02126 0.0514993 0)
(1.02113 0.0604967 0)
(1.02188 0.0697886 0)
(1.02257 0.0794276 0)
(1.02338 0.0894761 0)
(1.0245 0.0999963 0)
(1.026 0.111041 0)
(1.02799 0.122651 0)
(1.03059 0.134857 0)
(1.03395 0.147668 0)
(1.03821 0.161056 0)
(1.04356 0.174936 0)
(1.0502 0.189091 0)
(1.05832 0.202989 0)
(1.06748 0.215337 0)
(1.39897 0.00784422 0)