/*--------------------------------*- C++ -*----------------------------------*\
  =========                 |
  \\      /  F ield         | OpenFOAM: The Open Source CFD Toolbox
   \\    /   O peration     | Website:  https://openfoam.org
    \\  /    A nd           | Version:  6
     \\/     M anipulation  |
\*---------------------------------------------------------------------------*/
FoamFile
{
    version     2.0;
    format      ascii;
    class       surfaceScalarField;
    location    "1.4";
    object      phi;
}
// * * * * * * * * * * * * * * * * * * * * * * * * * * * * * * * * * * * * * //

dimensions      [0 3 -1 0 0 0 0];

internalField   nonuniform List<scalar> 
11030
(
0.000121028
5.77398e-07
0.000121106
-7.71719e-08
0.000120873
2.32671e-07
0.000120331
5.41455e-07
0.000119853
4.78333e-07
0.000119435
4.18474e-07
0.000118979
4.55862e-07
0.000118455
5.23945e-07
0.000117859
5.95364e-07
0.000117183
6.76699e-07
0.000116409
7.73794e-07
0.000115521
8.87716e-07
0.000114502
1.01936e-06
0.000113331
1.17072e-06
0.000111987
1.34428e-06
0.000110444
1.54258e-06
0.000108677
1.76745e-06
0.000106658
2.01844e-06
0.000104369
2.28953e-06
2.55954e-06
0.000101809
0.000121983
1.7847e-07
0.000121535
3.69949e-07
0.000120853
9.14914e-07
0.00012032
1.07474e-06
0.000119848
9.50631e-07
0.000119353
9.12704e-07
0.000118816
9.92983e-07
0.000118227
1.11277e-06
0.000117573
1.24956e-06
0.000116837
1.41263e-06
0.000116003
1.60812e-06
0.000115053
1.83753e-06
0.000113969
2.10305e-06
0.000112732
2.40857e-06
0.000111317
2.75882e-06
0.000109701
3.1586e-06
0.000107857
3.61141e-06
0.000105759
4.11607e-06
0.000103389
4.66041e-06
5.2064e-06
0.000100742
0.000121537
1.44018e-07
0.000121338
5.69417e-07
0.00012083
1.42326e-06
0.00012028
1.62419e-06
0.000119768
1.46255e-06
0.000119242
1.43902e-06
0.000118667
1.56811e-06
0.000118032
1.74725e-06
0.000117328
1.95403e-06
0.000116538
2.20199e-06
0.000115648
2.49859e-06
0.00011464
2.84587e-06
0.000113495
3.2472e-06
0.000112196
3.70826e-06
0.000110719
4.2359e-06
0.00010904
4.83708e-06
0.000107135
5.51685e-06
0.000104977
6.27351e-06
0.000102549
7.08917e-06
7.9117e-06
9.98433e-05
0.000121349
2.03504e-07
0.000121125
7.93499e-07
0.000120662
1.88601e-06
0.00012014
2.14587e-06
0.000119632
1.97059e-06
0.000119098
1.97364e-06
0.000118504
2.16198e-06
0.000117841
2.41049e-06
0.000117099
2.69541e-06
0.000116267
3.03451e-06
0.000115329
3.43685e-06
0.000114269
3.90506e-06
0.000113073
4.44368e-06
0.000111721
5.0601e-06
0.000110194
5.76313e-06
0.000108469
6.56173e-06
0.000106524
7.46243e-06
0.000104334
8.46302e-06
0.000101883
9.54023e-06
1.063e-05
9.91647e-05
0.000121172
3.38547e-07
0.0001209
1.06534e-06
0.000120457
2.3292e-06
0.000119964
2.63909e-06
0.000119471
2.46354e-06
0.000118938
2.50647e-06
0.000118334
2.76567e-06
0.000117651
3.09422e-06
0.00011688
3.46654e-06
0.00011601
3.90403e-06
0.00011503
4.41709e-06
0.000113926
5.00884e-06
0.000112685
5.68485e-06
0.000111291
6.45405e-06
0.000109727
7.32702e-06
0.000107974
8.31442e-06
0.000106013
9.42404e-06
0.000103823
1.06531e-05
0.00010139
1.19732e-05
1.33105e-05
9.87092e-05
0.000120973
5.63334e-07
0.000120653
1.38566e-06
0.000120241
2.74116e-06
0.000119786
3.09378e-06
0.000119314
2.93584e-06
0.000118785
3.03518e-06
0.000118172
3.37869e-06
0.000117468
3.79907e-06
0.000116666
4.26852e-06
0.000115758
4.81143e-06
0.000114736
5.4392e-06
0.00011359
6.15531e-06
0.000112308
6.96629e-06
0.00011088
7.88242e-06
0.000109291
8.91572e-06
0.000107527
1.00782e-05
0.000105573
1.13786e-05
0.000103412
1.28136e-05
0.000101035
1.435e-05
1.59067e-05
9.84392e-05
0.0001207
9.43678e-07
0.00012034
1.74538e-06
0.000120022
3.05922e-06
0.000119636
3.47986e-06
0.000119186
3.38573e-06
0.000118656
3.56512e-06
0.000118026
4.00869e-06
0.000117291
4.53449e-06
0.000116449
5.11096e-06
0.000115495
5.76488e-06
0.000114425
6.50897e-06
0.000113233
7.34728e-06
0.000111912
8.28729e-06
0.000110454
9.34048e-06
0.00010885
1.052e-05
0.00010709
1.18387e-05
0.000105162
1.3306e-05
0.000103057
1.49183e-05
0.000100769
1.66388e-05
1.83825e-05
9.82928e-05
0.000120206
1.69251e-06
0.000119858
2.09244e-06
0.000119811
3.10647e-06
0.000119546
3.74482e-06
0.000119104
3.82777e-06
0.000118555
4.11426e-06
0.000117891
4.67299e-06
0.000117106
5.31927e-06
0.000116206
6.01138e-06
0.000115192
6.77847e-06
0.000114065
7.6364e-06
0.000112821
8.59053e-06
0.000111459
9.64944e-06
0.000109974
1.08256e-05
0.000108361
1.21326e-05
0.000106616
1.35841e-05
0.000104732
1.51896e-05
0.000102705
1.69457e-05
0.000100529
1.88147e-05
2.07154e-05
9.81963e-05
0.000118981
3.54241e-06
0.000119121
1.95309e-06
0.000119748
2.47901e-06
0.000119586
3.90728e-06
0.000119076
4.33778e-06
0.000118469
4.72127e-06
0.000117739
5.40237e-06
0.000116876
6.18298e-06
0.000115893
6.99374e-06
0.000114802
7.86955e-06
0.000113605
8.8333e-06
0.000112303
9.89252e-06
0.000110896
1.10565e-05
0.000109384
1.23381e-05
0.000107765
1.3751e-05
0.000106041
1.53079e-05
0.000104213
1.70184e-05
0.000102278
1.88805e-05
0.000100235
2.0858e-05
2.28686e-05
9.80814e-05
0.000116857
7.47895e-06
0.000119034
-2.23965e-07
0.000120259
1.25395e-06
0.000119816
4.35026e-06
0.000119107
5.04774e-06
0.000118376
5.45201e-06
0.000117527
6.25142e-06
0.000116549
7.16044e-06
0.000115466
8.07719e-06
0.000114287
9.04853e-06
0.000113015
1.01051e-05
0.000111652
1.12559e-05
0.000110198
1.251e-05
0.000108657
1.38794e-05
0.000107032
1.53762e-05
0.000105329
1.70106e-05
0.000103558
1.87893e-05
0.000101728
2.07107e-05
9.98254e-05
2.27604e-05
9.78314e-05
2.48626e-05
9.11368e-05
1.06726e-05
8.03159e-05
1.08209e-05
6.93308e-05
1.0985e-05
5.81744e-05
1.11565e-05
4.68577e-05
1.13167e-05
3.54505e-05
1.14073e-05
2.41656e-05
1.12848e-05
1.35286e-05
1.0637e-05
4.662e-06
8.86663e-06
4.662e-06
9.01467e-05
2.12676e-05
7.93996e-05
2.1568e-05
6.84932e-05
2.18914e-05
5.74227e-05
2.22269e-05
4.62032e-05
2.25362e-05
3.4909e-05
2.27014e-05
2.37555e-05
2.24383e-05
1.32658e-05
2.11267e-05
4.5996e-06
1.75328e-05
9.2616e-06
8.9313e-05
3.17978e-05
7.86295e-05
3.22515e-05
6.77915e-05
3.27294e-05
5.6796e-05
3.32225e-05
4.56598e-05
3.36724e-05
3.44605e-05
3.39007e-05
2.34178e-05
3.34809e-05
1.30584e-05
3.14862e-05
4.51522e-06
2.6076e-05
1.37768e-05
8.86751e-05
4.22874e-05
7.80349e-05
4.28917e-05
6.72469e-05
4.35175e-05
5.6308e-05
4.41613e-05
4.52352e-05
4.47453e-05
3.41078e-05
4.50281e-05
2.3149e-05
4.44397e-05
1.2888e-05
4.17472e-05
4.44682e-06
3.45172e-05
1.82236e-05
8.8238e-05
5.27587e-05
7.76192e-05
5.35105e-05
6.686e-05
5.42767e-05
5.5956e-05
5.50654e-05
4.49227e-05
5.57785e-05
3.38408e-05
5.611e-05
2.29374e-05
5.53431e-05
1.27471e-05
5.19375e-05
4.38734e-06
4.2877e-05
2.2611e-05
8.79691e-05
6.32288e-05
7.73529e-05
6.41266e-05
6.66035e-05
6.50261e-05
5.57128e-05
6.5956e-05
4.46949e-05
6.67964e-05
3.36324e-05
6.71724e-05
2.27587e-05
6.62169e-05
1.26173e-05
6.20789e-05
4.32724e-06
5.1167e-05
2.69382e-05
8.78095e-05
7.37121e-05
7.71811e-05
7.4755e-05
6.6425e-05
7.57822e-05
5.55277e-05
7.68533e-05
4.45023e-05
7.78218e-05
3.34361e-05
7.82386e-05
2.25726e-05
7.70804e-05
1.24694e-05
7.2182e-05
4.25195e-06
5.93845e-05
3.11902e-05
8.76797e-05
8.42287e-05
7.70238e-05
8.5411e-05
6.62466e-05
8.65593e-05
5.53234e-05
8.77765e-05
4.42706e-05
8.88746e-05
3.31843e-05
8.93249e-05
2.23236e-05
8.79412e-05
1.22651e-05
8.22405e-05
4.14245e-06
6.75071e-05
3.53326e-05
8.74634e-05
9.48467e-05
7.67602e-05
9.61142e-05
6.59451e-05
9.73744e-05
5.49797e-05
9.8742e-05
4.38908e-05
9.99635e-05
3.27857e-05
0.00010043
2.1942e-05
9.87849e-05
1.19558e-05
9.22267e-05
3.97215e-06
7.54908e-05
3.93048e-05
8.69015e-05
0.000105777
7.61661e-05
0.00010685
6.52984e-05
0.000108242
5.42982e-05
0.000109742
4.32005e-05
0.000111061
3.21173e-05
0.000111513
2.13391e-05
0.000109563
1.14737e-05
0.000102092
3.68775e-06
8.32768e-05
4.29925e-05
3.35277e-05
0.000111495
-3.92456e-05
2.78373e-05
0.00011254
2.22314e-05
0.000113848
1.67573e-05
0.000115216
1.15658e-05
0.000116253
6.92591e-06
0.000116153
3.21569e-06
0.000113273
8.28018e-07
0.00010448
-7.80418e-08
8.41828e-05
4.29145e-05
2.72577e-05
0.000116628
-3.23911e-05
2.21028e-05
0.000117695
1.70396e-05
0.000118911
1.21808e-05
0.000120075
7.69722e-06
0.000120736
3.85817e-06
0.000119992
1.01318e-06
0.000116118
-5.07096e-07
0.000106
-6.36018e-07
8.43118e-05
4.22785e-05
2.09974e-05
0.000121211
-2.55803e-05
1.64004e-05
0.000122292
1.1923e-05
0.000123389
7.70883e-06
0.000124289
3.9542e-06
0.000124491
9.31592e-07
0.000123015
-1.03755e-06
0.000118087
-1.69039e-06
0.000106653
-1.07282e-06
8.36942e-05
4.12057e-05
1.48113e-05
0.000125253
-1.88533e-05
1.07915e-05
0.000126311
6.92759e-06
0.000127253
3.38483e-06
0.000127832
3.79036e-07
0.000127497
-1.81735e-06
0.000125211
-2.91427e-06
0.000119184
-2.72432e-06
0.000106463
-1.42181e-06
8.23917e-05
3.97839e-05
8.74745e-06
0.000128754
-1.22485e-05
5.31423e-06
0.000129745
2.08437e-06
0.000130483
-7.63217e-07
0.00013068
-3.002e-06
0.000129736
-4.36693e-06
0.000126576
-4.60662e-06
0.000119424
-3.61602e-06
0.000105472
-1.69872e-06
8.04744e-05
3.80851e-05
2.83737e-06
0.000131712
-5.79542e-06
-1.67776e-09
0.000132584
-2.58141e-06
0.000133062
-4.71478e-06
0.000132813
-6.17285e-06
0.000131194
-6.70668e-06
0.00012711
-6.11213e-06
0.000118829
-4.37183e-06
0.000103732
-1.91223e-06
7.80148e-05
3.61729e-05
-2.89789e-06
0.000134123
4.87309e-07
-5.13458e-06
0.00013482
-7.05024e-06
0.000134978
-8.45403e-06
0.000134217
-9.12237e-06
0.000131862
-8.8314e-06
0.000126819
-7.43254e-06
0.000117431
-4.99931e-06
0.000101299
-2.07058e-06
7.5086e-05
3.41023e-05
-8.44639e-06
0.000135979
6.58997e-06
-1.00704e-05
0.000136444
-1.1308e-05
0.000136215
-1.19687e-05
0.000134877
-1.18418e-05
0.000131735
-1.07375e-05
0.000125715
-8.57046e-06
0.000115264
-5.50607e-06
9.82343e-05
-2.18119e-06
7.17612e-05
3.19211e-05
-1.38018e-05
0.000137272
1.25085e-05
-1.4799e-05
0.000137442
-1.53409e-05
0.000136757
-1.52434e-05
0.00013478
-1.43166e-05
0.000130808
-1.24151e-05
0.000123813
-9.52424e-06
0.000112373
-5.89871e-06
9.46088e-05
-2.25182e-06
6.81143e-05
2.96693e-05
-1.89549e-05
1.82482e-05
0.000137979
-1.92939e-05
0.000137781
-1.91087e-05
0.000136572
-1.823e-05
0.000133901
-1.6501e-05
0.000129079
-1.38318e-05
0.000121144
-1.02833e-05
0.000108824
-6.18716e-06
9.05126e-05
-2.29984e-06
6.42269e-05
2.73695e-05
8.58409e-05
-3.98457e-05
-8.52408e-05
8.66676e-05
-3.32179e-05
8.76943e-05
-2.66069e-05
8.88635e-05
-2.00225e-05
9.01342e-05
-1.35193e-05
9.14589e-05
-7.12008e-06
9.27866e-05
-8.40357e-07
9.40666e-05
5.30995e-06
9.52514e-05
1.13237e-05
1.72138e-05
9.62857e-05
8.66535e-05
-4.02653e-05
-8.62339e-05
8.72638e-05
-3.38283e-05
8.80741e-05
-2.74172e-05
8.90415e-05
-2.09899e-05
9.01284e-05
-1.46061e-05
9.12941e-05
-8.28574e-06
9.24951e-05
-2.04137e-06
9.36881e-05
4.11693e-06
9.48315e-05
1.01803e-05
1.61655e-05
9.58797e-05
8.73364e-05
-4.04744e-05
-8.71273e-05
8.77549e-05
-3.42468e-05
8.83682e-05
-2.80305e-05
8.91465e-05
-2.17683e-05
9.00574e-05
-1.5517e-05
9.10668e-05
-9.2951e-06
9.21387e-05
-3.11325e-06
9.3237e-05
3.01861e-06
9.43265e-05
9.09082e-06
1.51209e-05
9.53711e-05
8.792e-05
-4.05281e-05
-8.78663e-05
8.8173e-05
-3.44998e-05
8.86111e-05
-2.84687e-05
8.92147e-05
-2.23718e-05
8.99585e-05
-1.62608e-05
9.08156e-05
-1.01522e-05
9.17574e-05
-4.055e-06
9.27548e-05
2.02122e-06
9.37788e-05
8.06676e-06
1.40986e-05
9.48012e-05
8.83985e-05
-4.04582e-05
-8.84684e-05
8.85128e-05
-3.46141e-05
8.87995e-05
-2.87554e-05
8.92477e-05
-2.282e-05
8.98391e-05
-1.68522e-05
9.05536e-05
-1.08667e-05
9.13694e-05
-4.87088e-06
9.22643e-05
1.12636e-06
9.32151e-05
7.11593e-06
1.31138e-05
9.41999e-05
8.87731e-05
-4.02803e-05
-8.89509e-05
8.87683e-05
-3.46093e-05
8.89255e-05
-2.89126e-05
8.92388e-05
-2.31333e-05
8.96957e-05
-1.73091e-05
9.02816e-05
-1.14526e-05
9.09807e-05
-5.57001e-06
9.17764e-05
3.30693e-07
9.2651e-05
6.2413e-06
1.21769e-05
9.3588e-05
8.90533e-05
-4.00066e-05
-8.9327e-05
8.89445e-05
-3.45006e-05
8.89901e-05
-2.89582e-05
8.91873e-05
-2.33305e-05
8.95272e-05
-1.76491e-05
8.99996e-05
-1.1925e-05
9.05933e-05
-6.16365e-06
9.12962e-05
-3.72219e-07
9.20954e-05
5.44206e-06
1.12935e-05
9.29788e-05
8.92504e-05
-3.96474e-05
-8.96096e-05
8.90503e-05
-3.43005e-05
8.89993e-05
-2.89073e-05
8.90962e-05
-2.34274e-05
8.93348e-05
-1.78877e-05
8.97079e-05
-1.2298e-05
9.02076e-05
-6.66333e-06
9.08256e-05
-9.90223e-07
9.15527e-05
4.71494e-06
1.04658e-05
9.23804e-05
8.9376e-05
-3.92121e-05
-8.98112e-05
8.90952e-05
-3.40197e-05
8.89601e-05
-2.87721e-05
8.897e-05
-2.34374e-05
8.91208e-05
-1.80384e-05
8.94071e-05
-1.25843e-05
8.98238e-05
-7.07998e-06
9.03651e-05
-1.53154e-06
9.10248e-05
4.05526e-06
9.69335e-06
9.17972e-05
8.94409e-05
-3.87092e-05
-8.99439e-05
8.90888e-05
-3.36676e-05
8.88799e-05
-2.85631e-05
8.8814e-05
-2.33715e-05
8.88882e-05
-1.81126e-05
8.90988e-05
-1.27949e-05
8.94422e-05
-7.42338e-06
8.99147e-05
-2.00408e-06
9.05122e-05
3.45772e-06
8.97421e-06
9.12314e-05
8.94554e-05
-3.8146e-05
-9.00185e-05
8.904e-05
-3.32522e-05
8.87659e-05
-2.82891e-05
8.86335e-05
-2.32391e-05
8.86406e-05
-1.81197e-05
8.87846e-05
-1.29389e-05
8.90633e-05
-7.70206e-06
8.94743e-05
-2.4151e-06
9.00151e-05
2.91695e-06
8.30547e-06
9.06838e-05
8.94283e-05
-3.75293e-05
-9.0045e-05
8.89566e-05
-3.27805e-05
8.86249e-05
-2.79573e-05
8.84337e-05
-2.30479e-05
8.83816e-05
-1.80676e-05
8.84669e-05
-1.30242e-05
8.86881e-05
-7.92334e-06
8.90441e-05
-2.77101e-06
8.95331e-05
2.42789e-06
7.68385e-06
9.01547e-05
8.93675e-05
-3.68648e-05
-9.0032e-05
8.88457e-05
-3.22587e-05
8.84626e-05
-2.75743e-05
8.82192e-05
-2.28045e-05
8.81146e-05
-1.7963e-05
8.81477e-05
-1.30574e-05
8.83178e-05
-8.09344e-06
8.86242e-05
-3.07741e-06
8.90662e-05
1.98588e-06
7.10601e-06
8.9644e-05
8.92798e-05
-3.61576e-05
-8.99871e-05
8.87132e-05
-3.1692e-05
8.82843e-05
-2.71454e-05
8.79943e-05
-2.25144e-05
8.78427e-05
-1.78115e-05
8.78292e-05
-1.30439e-05
8.79534e-05
-8.21765e-06
8.82152e-05
-3.33916e-06
8.86143e-05
1.58676e-06
6.56872e-06
8.91516e-05
8.91711e-05
-3.54121e-05
-8.99166e-05
8.85642e-05
-3.10852e-05
8.80943e-05
-2.66755e-05
8.77624e-05
-2.21826e-05
8.75689e-05
-1.76179e-05
8.75134e-05
-1.29884e-05
8.75963e-05
-8.30047e-06
8.78175e-05
-3.56041e-06
8.81774e-05
1.22685e-06
6.06899e-06
8.86772e-05
8.90461e-05
-3.46321e-05
-8.9826e-05
8.84031e-05
-3.04422e-05
8.78962e-05
-2.61686e-05
8.75268e-05
-2.18132e-05
8.72953e-05
-1.73864e-05
8.7202e-05
-1.28951e-05
8.72473e-05
-8.3458e-06
8.74317e-05
-3.74481e-06
8.77557e-05
9.02881e-07
5.60406e-06
8.82206e-05
8.89089e-05
-3.38212e-05
-8.97199e-05
8.82334e-05
-2.97667e-05
8.76932e-05
-2.56284e-05
8.72898e-05
-2.14098e-05
8.7024e-05
-1.71206e-05
8.68964e-05
-1.27675e-05
8.69076e-05
-8.35701e-06
8.70583e-05
-3.89551e-06
8.73492e-05
6.11991e-07
5.17144e-06
8.77818e-05
8.87629e-05
-3.29822e-05
-8.96018e-05
8.80581e-05
-2.90619e-05
8.74877e-05
-2.5058e-05
8.70536e-05
-2.09757e-05
8.67567e-05
-1.68237e-05
8.65978e-05
-1.26087e-05
8.65779e-05
-8.33705e-06
8.66976e-05
-4.0153e-06
8.6958e-05
3.51619e-07
4.76884e-06
8.73606e-05
8.86109e-05
-3.2118e-05
-8.94751e-05
8.78795e-05
-2.83305e-05
8.72819e-05
-2.44604e-05
8.68198e-05
-2.05136e-05
8.64946e-05
-1.64984e-05
8.63072e-05
-1.24213e-05
8.62587e-05
-8.28855e-06
8.635e-05
-4.10663e-06
8.65822e-05
1.19475e-07
4.39419e-06
8.69568e-05
8.84551e-05
-3.12309e-05
-8.93422e-05
8.76996e-05
-2.7575e-05
8.70772e-05
-2.3838e-05
8.65898e-05
-2.00262e-05
8.62388e-05
-1.61474e-05
8.60253e-05
-1.22078e-05
8.59506e-05
-8.21382e-06
8.60157e-05
-4.17174e-06
8.62217e-05
-8.65084e-08
4.04562e-06
8.65702e-05
8.82974e-05
-3.0323e-05
-8.92052e-05
8.75201e-05
-2.67978e-05
8.68753e-05
-2.31931e-05
8.63647e-05
-1.95157e-05
8.59901e-05
-1.57727e-05
8.57527e-05
-1.19704e-05
8.56538e-05
-8.11498e-06
8.56947e-05
-4.2126e-06
8.58764e-05
-2.68209e-07
3.72136e-06
8.62007e-05
8.81394e-05
-2.93963e-05
-8.9066e-05
8.73424e-05
-2.60008e-05
8.6677e-05
-2.25278e-05
8.61454e-05
-1.8984e-05
8.57491e-05
-1.53765e-05
8.54898e-05
-1.17111e-05
8.53687e-05
-7.99391e-06
8.53872e-05
-4.23105e-06
8.55463e-05
-4.27344e-07
3.41981e-06
8.58479e-05
8.79823e-05
-2.84526e-05
-8.89261e-05
8.71674e-05
-2.51859e-05
8.64834e-05
-2.18438e-05
8.59325e-05
-1.84331e-05
8.55165e-05
-1.49605e-05
8.52369e-05
-1.14316e-05
8.50954e-05
-7.85234e-06
8.5093e-05
-4.22873e-06
8.52312e-05
-5.65493e-07
3.13948e-06
8.55115e-05
8.78273e-05
-2.74933e-05
-8.87866e-05
8.6996e-05
-2.43546e-05
8.6295e-05
-2.11428e-05
8.57265e-05
-1.78646e-05
8.52924e-05
-1.45263e-05
8.49943e-05
-1.11335e-05
8.48338e-05
-7.69184e-06
8.48122e-05
-4.20716e-06
8.49308e-05
-6.84115e-07
2.87897e-06
8.51914e-05
8.76752e-05
-2.652e-05
-8.86486e-05
8.68291e-05
-2.35084e-05
8.61126e-05
-2.04262e-05
8.55279e-05
-1.728e-05
8.50772e-05
-1.40756e-05
8.4762e-05
-1.08183e-05
8.4584e-05
-7.51384e-06
8.45446e-05
-4.16773e-06
8.4645e-05
-7.8456e-07
2.63698e-06
8.4887e-05
8.75268e-05
-2.55338e-05
-8.8513e-05
8.66671e-05
-2.26487e-05
8.59364e-05
-1.96955e-05
8.53371e-05
-1.66806e-05
8.4871e-05
-1.36095e-05
8.45401e-05
-1.04874e-05
8.43459e-05
-7.31967e-06
8.42899e-05
-4.11175e-06
8.43734e-05
-8.68085e-07
2.4123e-06
8.45981e-05
8.73827e-05
-2.45361e-05
-8.83805e-05
8.65107e-05
-2.17767e-05
8.5767e-05
-1.89519e-05
8.51541e-05
-1.60677e-05
8.4674e-05
-1.31294e-05
8.43285e-05
-1.01419e-05
8.41194e-05
-7.11054e-06
8.4048e-05
-4.0404e-06
8.41158e-05
-9.35857e-07
2.20377e-06
8.43243e-05
8.72433e-05
-2.35277e-05
-8.82517e-05
8.636e-05
-2.08934e-05
8.56046e-05
-1.81964e-05
8.49792e-05
-1.54424e-05
8.44862e-05
-1.26364e-05
8.41274e-05
-9.78309e-06
8.39044e-05
-6.88756e-06
8.38188e-05
-3.9548e-06
8.38719e-05
-9.88967e-07
2.01033e-06
8.40653e-05
8.71091e-05
-2.25097e-05
-8.81271e-05
8.62156e-05
-1.99999e-05
8.54493e-05
-1.74301e-05
8.48126e-05
-1.48057e-05
8.43077e-05
-1.21314e-05
8.39365e-05
-9.41188e-06
8.37007e-05
-6.65178e-06
8.36018e-05
-3.85596e-06
8.36413e-05
-1.02843e-06
1.83097e-06
8.38207e-05
8.69804e-05
-2.1483e-05
-8.80072e-05
8.60776e-05
-1.9097e-05
8.53014e-05
-1.66539e-05
8.46542e-05
-1.41586e-05
8.41384e-05
-1.16156e-05
8.37557e-05
-9.02926e-06
8.35081e-05
-6.40415e-06
8.3397e-05
-3.74484e-06
8.34238e-05
-1.05521e-06
1.66474e-06
8.359e-05
8.68576e-05
-2.04483e-05
-8.78922e-05
8.59462e-05
-1.81857e-05
8.51609e-05
-1.58686e-05
8.45042e-05
-1.35019e-05
8.39783e-05
-1.10897e-05
8.35851e-05
-8.63612e-06
8.33265e-05
-6.14555e-06
8.3204e-05
-3.62233e-06
8.3219e-05
-1.07018e-06
1.51073e-06
8.3373e-05
8.67407e-05
-1.94064e-05
-8.77826e-05
8.58215e-05
-1.72665e-05
8.5028e-05
-1.5075e-05
8.43625e-05
-1.28364e-05
8.38273e-05
-1.05545e-05
8.34244e-05
-8.23327e-06
8.31557e-05
-5.87681e-06
8.30226e-05
-3.48926e-06
8.30267e-05
-1.07419e-06
1.36812e-06
8.31693e-05
8.663e-05
-1.8358e-05
-8.76784e-05
8.57038e-05
-1.63403e-05
8.49026e-05
-1.42739e-05
8.42291e-05
-1.21628e-05
8.36854e-05
-1.00108e-05
8.32736e-05
-7.82146e-06
8.29955e-05
-5.59869e-06
8.28526e-05
-3.34642e-06
8.28465e-05
-1.06802e-06
1.23611e-06
8.29785e-05
8.65256e-05
-1.73036e-05
-8.75799e-05
8.55929e-05
-1.54077e-05
8.47849e-05
-1.34659e-05
8.4104e-05
-1.14819e-05
8.35525e-05
-9.4593e-06
8.31324e-05
-7.40141e-06
8.28456e-05
-5.31192e-06
8.26937e-05
-3.19452e-06
8.26781e-05
-1.05241e-06
1.11393e-06
8.28003e-05
8.64276e-05
-1.62438e-05
-8.74873e-05
8.54891e-05
-1.44692e-05
8.46748e-05
-1.26515e-05
8.39871e-05
-1.07943e-05
8.34284e-05
-8.90061e-06
8.30008e-05
-6.97377e-06
8.2706e-05
-5.01716e-06
8.25457e-05
-3.03425e-06
8.25214e-05
-1.02805e-06
1.00089e-06
8.26344e-05
8.63361e-05
-1.51792e-05
-8.74007e-05
8.53923e-05
-1.35254e-05
8.45722e-05
-1.18314e-05
8.38784e-05
-1.01004e-05
8.33131e-05
-8.33533e-06
8.28785e-05
-6.53914e-06
8.25764e-05
-4.71503e-06
8.24084e-05
-2.86625e-06
8.23759e-05
-9.95607e-07
8.96295e-07
8.24805e-05
8.62511e-05
-1.41103e-05
-8.73201e-05
8.53025e-05
-1.25769e-05
8.44772e-05
-1.10061e-05
8.37778e-05
-9.40096e-06
8.32065e-05
-7.76403e-06
8.27654e-05
-6.09812e-06
8.24566e-05
-4.40614e-06
8.22814e-05
-2.69113e-06
8.22415e-05
-9.55703e-07
7.99514e-07
8.23383e-05
8.61726e-05
-1.30374e-05
-8.72455e-05
8.52198e-05
-1.1624e-05
8.43897e-05
-1.01761e-05
8.36851e-05
-8.69638e-06
8.31084e-05
-7.18724e-06
8.26615e-05
-5.65122e-06
8.23464e-05
-4.09104e-06
8.21647e-05
-2.50946e-06
8.21179e-05
-9.08929e-07
7.09931e-07
8.22075e-05
8.61007e-05
-1.1961e-05
-8.71771e-05
8.51439e-05
-1.06672e-05
8.43096e-05
-9.34183e-06
8.36004e-05
-7.98716e-06
8.30186e-05
-6.60544e-06
8.25664e-05
-5.19898e-06
8.22456e-05
-3.77025e-06
8.20579e-05
-2.3218e-06
8.20048e-05
-8.55851e-07
6.26959e-07
8.20878e-05
8.60352e-05
-1.08816e-05
-8.71147e-05
8.5075e-05
-9.70697e-06
8.42369e-05
-8.50371e-06
8.35235e-05
-7.27375e-06
8.29371e-05
-6.01911e-06
8.248e-05
-4.74188e-06
8.21541e-05
-3.4443e-06
8.19609e-05
-2.12866e-06
8.19021e-05
-7.97008e-07
5.50035e-07
8.1979e-05
8.59762e-05
-9.79936e-06
-8.70584e-05
8.50129e-05
-8.74368e-06
8.41714e-05
-7.66218e-06
8.34542e-05
-6.55659e-06
8.28638e-05
-5.42871e-06
8.24023e-05
-4.28039e-06
8.20716e-05
-3.11364e-06
8.18735e-05
-1.93054e-06
8.18094e-05
-7.32924e-07
4.78619e-07
8.18809e-05
8.59234e-05
-8.71483e-06
-8.7008e-05
8.49575e-05
-7.77773e-06
8.4113e-05
-6.81766e-06
8.33925e-05
-5.83611e-06
8.27984e-05
-4.83466e-06
8.2333e-05
-3.81496e-06
8.19981e-05
-2.77877e-06
8.17955e-05
-1.72793e-06
8.17267e-05
-6.64097e-07
4.12186e-07
8.17931e-05
8.58769e-05
-7.62834e-06
-8.69634e-05
8.49087e-05
-6.8095e-06
8.40616e-05
-5.97054e-06
8.33382e-05
-5.11272e-06
8.27409e-05
-4.2374e-06
8.2272e-05
-3.34602e-06
8.19334e-05
-2.44011e-06
8.17267e-05
-1.5213e-06
8.16536e-05
-5.91017e-07
3.50225e-07
8.17156e-05
8.58366e-05
-6.54028e-06
-8.69246e-05
8.48665e-05
-5.83939e-06
8.40172e-05
-5.12123e-06
8.32913e-05
-4.38682e-06
8.26912e-05
-3.63734e-06
8.22192e-05
-2.874e-06
8.18772e-05
-2.09812e-06
8.1667e-05
-1.31109e-06
8.15901e-05
-5.14157e-07
2.92235e-07
8.16481e-05
8.58023e-05
-5.45103e-06
-8.68915e-05
8.48307e-05
-4.86779e-06
8.39795e-05
-4.2701e-06
8.32515e-05
-3.6588e-06
8.2649e-05
-3.03487e-06
8.21744e-05
-2.39931e-06
8.18295e-05
-1.75322e-06
8.16161e-05
-1.09777e-06
8.1536e-05
-4.33988e-07
2.37726e-07
8.15905e-05
8.57739e-05
-4.36098e-06
-8.6864e-05
8.48012e-05
-3.89507e-06
8.39486e-05
-3.41753e-06
8.32189e-05
-2.92905e-06
8.26144e-05
-2.43038e-06
8.21375e-05
-1.92235e-06
8.17901e-05
-1.40583e-06
8.15741e-05
-8.81761e-07
8.1491e-05
-3.50974e-07
1.86206e-07
8.15426e-05
8.57515e-05
-3.27051e-06
-8.6842e-05
8.4778e-05
-2.92159e-06
8.39244e-05
-2.5639e-06
8.31933e-05
-2.19793e-06
8.25872e-05
-1.82427e-06
8.21083e-05
-1.44353e-06
8.17589e-05
-1.05638e-06
8.15406e-05
-6.6352e-07
8.14553e-05
-2.65583e-07
1.37182e-07
8.15043e-05
8.57349e-05
-2.17999e-06
-8.68254e-05
8.4761e-05
-1.94772e-06
8.39067e-05
-1.70955e-06
8.31746e-05
-1.46581e-06
8.25672e-05
-1.2169e-06
8.20869e-05
-9.63247e-07
8.17358e-05
-7.05287e-07
8.15158e-05
-4.43494e-07
8.14285e-05
-1.78288e-07
9.01531e-08
8.14755e-05
8.57241e-05
-1.08972e-06
-8.68144e-05
8.47502e-05
-9.73761e-07
8.38954e-05
-8.54803e-07
8.31627e-05
-7.33039e-07
8.25544e-05
-6.08675e-07
8.20731e-05
-4.81921e-07
8.17208e-05
-3.53002e-07
8.14995e-05
-2.22154e-07
8.14108e-05
-8.95861e-08
4.46042e-08
8.14563e-05
8.57191e-05
-8.68088e-05
8.47453e-05
8.38905e-05
8.31575e-05
8.25488e-05
8.20669e-05
8.17139e-05
8.14917e-05
8.14021e-05
8.14467e-05
8.60705e-05
4.78578e-06
8.4648e-05
1.1985e-06
8.39697e-05
1.9322e-06
8.42303e-05
4.08972e-06
8.43058e-05
4.9722e-06
8.41909e-05
5.56695e-06
8.40646e-05
6.37773e-06
8.3947e-05
7.27805e-06
8.38213e-05
8.20282e-06
8.36902e-05
9.17966e-06
8.35639e-05
1.02314e-05
8.34524e-05
1.13675e-05
8.33661e-05
1.25963e-05
8.3318e-05
1.39275e-05
8.33237e-05
1.53704e-05
8.34023e-05
1.6932e-05
8.35775e-05
1.86142e-05
8.38819e-05
2.04063e-05
8.43834e-05
2.22589e-05
2.40052e-05
8.56411e-05
2.63799e-06
8.48818e-05
1.9578e-06
8.43045e-05
2.50958e-06
8.44005e-05
3.9937e-06
8.44431e-05
4.92963e-06
8.43608e-05
5.64925e-06
8.42688e-05
6.46974e-06
8.41871e-05
7.35965e-06
8.4106e-05
8.28393e-06
8.40279e-05
9.25783e-06
8.39615e-05
1.02978e-05
8.39167e-05
1.14124e-05
8.39038e-05
1.26091e-05
8.3936e-05
1.38954e-05
8.40289e-05
1.52775e-05
8.42019e-05
1.6759e-05
8.44787e-05
1.83374e-05
8.48892e-05
1.99957e-05
8.547e-05
2.16782e-05
2.32412e-05
8.45634e-05
1.61572e-06
8.45164e-05
2.00481e-06
8.42922e-05
2.73376e-06
8.43594e-05
3.92647e-06
8.44241e-05
4.86498e-06
8.44098e-05
5.66352e-06
8.43762e-05
6.50332e-06
8.43454e-05
7.39049e-06
8.43171e-05
8.31221e-06
8.42959e-05
9.27908e-06
8.42903e-05
1.03033e-05
8.43101e-05
1.13926e-05
8.43659e-05
1.25533e-05
8.44705e-05
1.37907e-05
8.46391e-05
1.5109e-05
8.48893e-05
1.65087e-05
8.52421e-05
1.79846e-05
8.572e-05
1.95178e-05
8.63438e-05
2.10544e-05
2.24577e-05
8.40585e-05
1.12424e-06
8.41408e-05
1.92249e-06
8.41163e-05
2.75826e-06
8.42236e-05
3.8192e-06
8.43275e-05
4.761e-06
8.43785e-05
5.61251e-06
8.44079e-05
6.47396e-06
8.44341e-05
7.36431e-06
8.44623e-05
8.28398e-06
8.44992e-05
9.24225e-06
8.45535e-05
1.0249e-05
8.46351e-05
1.1311e-05
8.47546e-05
1.24337e-05
8.49244e-05
1.3621e-05
8.51584e-05
1.4875e-05
8.54727e-05
1.61945e-05
8.58849e-05
1.75725e-05
8.64128e-05
1.89899e-05
8.70711e-05
2.03961e-05
2.16626e-05
8.38031e-05
9.06565e-07
8.38951e-05
1.8305e-06
8.39551e-05
2.69829e-06
8.40826e-05
3.69175e-06
8.42122e-05
4.63132e-06
8.4312e-05
5.51272e-06
8.43952e-05
6.39078e-06
8.44743e-05
7.28519e-06
8.45561e-05
8.20221e-06
8.46478e-05
9.15051e-06
8.47583e-05
1.01385e-05
8.4897e-05
1.11723e-05
8.50743e-05
1.22564e-05
8.53018e-05
1.33935e-05
8.55922e-05
1.45845e-05
8.59597e-05
1.5827e-05
8.64191e-05
1.71131e-05
8.69847e-05
1.84242e-05
8.76673e-05
1.97135e-05
2.08615e-05
8.36899e-05
8.17509e-07
8.37627e-05
1.75771e-06
8.38454e-05
2.61552e-06
8.39738e-05
3.56343e-06
8.41136e-05
4.49151e-06
8.4243e-05
5.38325e-06
8.43653e-05
6.26854e-06
8.44873e-05
7.16319e-06
8.46148e-05
8.07466e-06
8.47546e-05
9.0107e-06
8.49147e-05
9.97843e-06
8.51039e-05
1.09832e-05
8.53318e-05
1.20285e-05
8.5609e-05
1.31163e-05
8.5947e-05
1.42465e-05
8.63581e-05
1.54159e-05
8.68546e-05
1.66165e-05
8.74483e-05
1.78305e-05
8.81471e-05
1.90148e-05
2.00577e-05
8.36509e-05
7.81662e-07
8.37043e-05
1.70431e-06
8.37854e-05
2.53444e-06
8.39054e-05
3.44349e-06
8.40449e-05
4.35199e-06
8.4189e-05
5.23911e-06
8.43363e-05
6.12131e-06
8.44896e-05
7.00985e-06
8.46531e-05
7.91116e-06
8.48322e-05
8.83159e-06
8.50337e-05
9.7769e-06
8.52655e-05
1.07514e-05
8.5536e-05
1.17579e-05
8.58547e-05
1.27976e-05
8.62317e-05
1.38695e-05
8.66775e-05
1.49702e-05
8.72025e-05
1.60915e-05
8.78163e-05
1.72167e-05
8.85248e-05
1.83062e-05
1.92555e-05
8.36462e-05
7.64557e-07
8.36882e-05
1.66233e-06
8.37621e-05
2.46053e-06
8.38717e-05
3.33386e-06
8.40062e-05
4.21751e-06
8.41557e-05
5.08962e-06
8.43172e-05
5.95972e-06
8.44917e-05
6.8354e-06
8.46815e-05
7.72134e-06
8.48908e-05
8.62227e-06
8.51252e-05
9.54257e-06
8.53911e-05
1.04855e-05
8.5696e-05
1.1453e-05
8.6048e-05
1.24456e-05
8.64557e-05
1.34618e-05
8.69282e-05
1.44977e-05
8.7474e-05
1.55457e-05
8.81008e-05
1.65899e-05
8.88134e-05
1.75937e-05
1.84593e-05
8.36557e-05
7.51864e-07
8.36933e-05
1.6247e-06
8.37615e-05
2.39236e-06
8.38627e-05
3.23264e-06
8.39914e-05
4.08881e-06
8.41416e-05
4.93942e-06
8.43107e-05
5.79065e-06
8.44985e-05
6.6476e-06
8.47065e-05
7.51328e-06
8.49379e-05
8.39092e-06
8.51969e-05
9.28357e-06
8.54889e-05
1.01935e-05
8.58202e-05
1.11217e-05
8.61976e-05
1.20682e-05
8.66285e-05
1.3031e-05
8.71201e-05
1.40061e-05
8.76798e-05
1.4986e-05
8.83136e-05
1.59561e-05
8.90251e-05
1.68822e-05
1.76731e-05
8.36703e-05
7.38318e-07
8.37078e-05
1.58718e-06
8.37731e-05
2.3271e-06
8.38689e-05
3.13681e-06
8.39931e-05
3.96461e-06
8.41424e-05
4.79008e-06
8.43152e-05
5.61793e-06
8.4511e-05
6.45173e-06
8.47311e-05
7.2932e-06
8.49777e-05
8.14429e-06
8.52544e-05
9.00696e-06
8.55653e-05
9.88248e-06
8.59158e-05
1.07712e-05
8.63115e-05
1.16725e-05
8.67584e-05
1.25841e-05
8.72626e-05
1.35018e-05
8.783e-05
1.44186e-05
8.84654e-05
1.53206e-05
8.91713e-05
1.61764e-05
1.69005e-05
8.36861e-05
7.22491e-07
8.37255e-05
1.54784e-06
8.37901e-05
2.26245e-06
8.38833e-05
3.04362e-06
8.40048e-05
3.84311e-06
8.41532e-05
4.64167e-06
8.43277e-05
5.44345e-06
8.45283e-05
6.25111e-06
8.4756e-05
7.06548e-06
8.50127e-05
7.88759e-06
8.53012e-05
8.71846e-06
8.56251e-05
9.55863e-06
8.59885e-05
1.04078e-05
8.63962e-05
1.12648e-05
8.6853e-05
1.21272e-05
8.7364e-05
1.29909e-05
8.79337e-05
1.38488e-05
8.85661e-05
1.46883e-05
8.92624e-05
1.54801e-05
1.61444e-05
8.37017e-05
7.04412e-07
8.37434e-05
1.50613e-06
8.38088e-05
2.19702e-06
8.39013e-05
2.95112e-06
8.40217e-05
3.72276e-06
8.41696e-05
4.49374e-06
8.43451e-05
5.268e-06
8.45484e-05
6.04774e-06
8.47807e-05
6.83317e-06
8.50437e-05
7.62466e-06
8.53396e-05
8.42256e-06
8.56714e-05
9.2268e-06
8.60426e-05
1.00366e-05
8.6457e-05
1.08505e-05
8.69186e-05
1.16657e-05
8.74313e-05
1.24781e-05
8.79989e-05
1.32812e-05
8.86242e-05
1.40631e-05
8.93078e-05
1.47965e-05
1.54071e-05
8.37165e-05
6.84545e-07
8.37604e-05
1.46217e-06
8.38272e-05
2.13022e-06
8.39201e-05
2.85821e-06
8.40404e-05
3.60248e-06
8.41884e-05
4.34578e-06
8.43644e-05
5.09193e-06
8.45694e-05
5.84282e-06
8.48042e-05
6.5983e-06
8.50706e-05
7.35828e-06
8.53705e-05
8.12264e-06
8.57065e-05
8.89084e-06
8.60813e-05
9.66178e-06
8.64982e-05
1.04336e-05
8.69602e-05
1.12036e-05
8.74707e-05
1.19676e-05
8.80324e-05
1.27195e-05
8.86473e-05
1.34481e-05
8.93155e-05
1.41283e-05
1.46907e-05
8.37303e-05
6.63391e-07
8.37762e-05
1.41635e-06
8.38444e-05
2.06194e-06
8.39383e-05
2.76439e-06
8.4059e-05
3.48175e-06
8.42073e-05
4.19753e-06
8.43837e-05
4.91543e-06
8.45894e-05
5.63716e-06
8.48254e-05
6.36231e-06
8.50932e-05
7.09048e-06
8.53946e-05
7.82122e-06
8.57318e-05
8.55369e-06
8.6107e-05
9.28651e-06
8.6523e-05
1.00177e-05
8.69822e-05
1.07444e-05
8.74871e-05
1.14627e-05
8.80399e-05
1.21668e-05
8.86419e-05
1.28461e-05
8.92927e-05
1.34774e-05
1.39964e-05
8.37434e-05
6.41371e-07
8.37906e-05
1.36915e-06
8.38602e-05
1.99238e-06
8.3955e-05
2.66962e-06
8.40763e-05
3.36041e-06
8.42249e-05
4.04893e-06
8.44016e-05
4.73875e-06
8.46074e-05
5.43138e-06
8.48434e-05
6.12625e-06
8.51112e-05
6.82276e-06
8.54122e-05
7.52021e-06
8.57483e-05
8.21756e-06
8.61215e-05
8.91328e-06
8.6534e-05
9.60526e-06
8.69876e-05
1.02907e-05
8.74845e-05
1.09659e-05
8.80261e-05
1.16251e-05
8.86133e-05
1.22589e-05
8.92453e-05
1.28455e-05
1.33251e-05
8.37558e-05
6.18808e-07
8.38039e-05
1.32099e-06
8.38745e-05