/*--------------------------------*- C++ -*----------------------------------*\
  =========                 |
  \\      /  F ield         | OpenFOAM: The Open Source CFD Toolbox
   \\    /   O peration     | Website:  https://openfoam.org
    \\  /    A nd           | Version:  6
     \\/     M anipulation  |
\*---------------------------------------------------------------------------*/
FoamFile
{
    version     2.0;
    format      ascii;
    class       volVectorField;
    location    "1.4";
    object      U;
}
// * * * * * * * * * * * * * * * * * * * * * * * * * * * * * * * * * * * * * //

dimensions      [0 1 -1 0 0 0 0];

internalField   nonuniform List<vector> 
5600
(
(2.25741 0.00744215 3.73178e-19)
(1.2918 0.00832342 -6.42127e-18)
(0.963176 0.00719981 6.40706e-18)
(1.01895 0.00523923 0)
(1.06183 0.00438449 0)
(1.05649 0.00461273 0)
(1.04447 0.00506076 -1.19566e-17)
(1.03679 0.00546058 1.19295e-17)
(1.03015 0.00591101 0)
(1.02259 0.0064758 0)
(1.01408 0.00715291 0)
(1.0047 0.00793938 0)
(0.994367 0.00884622 0)
(0.982898 0.00988994 -2.35397e-17)
(0.97012 0.0110881 2.3487e-17)
(0.955849 0.0124585 -4.68702e-17)
(0.939879 0.0140145 4.67657e-17)
(0.921995 0.0157538 0)
(0.901985 0.0176346 -3.63747e-19)
(0.879681 0.0195188 0)
(2.27413 0.013234 -3.67977e-19)
(1.28448 0.01713 6.33252e-18)
(0.962767 0.0167535 -6.32085e-18)
(1.02341 0.0145752 0)
(1.06493 0.0135521 0)
(1.05832 0.0140034 2.441e-17)
(1.04615 0.0149456 3.87455e-22)
(1.03854 0.016017 -7.36683e-19)
(1.0319 0.0173166 1.5216e-22)
(1.02435 0.0189245 -2.34912e-17)
(1.01588 0.0208474 0)
(1.0066 0.0230937 -4.75369e-17)
(0.996393 0.0256933 4.67169e-17)
(0.98509 0.0286882 0)
(0.972525 0.0321259 0)
(0.958522 0.0360549 0)
(0.942886 0.0405106 0)
(0.925414 0.0454824 -4.62818e-17)
(0.905899 0.0508471 4.65558e-17)
(0.884082 0.0562477 4.54185e-17)
(2.29387 0.0141436 0)
(1.28087 0.025772 0)
(0.960245 0.0276351 0)
(1.02545 0.0241097 0)
(1.06751 0.0225025 2.33914e-17)
(1.0606 0.0232928 -2.40867e-17)
(1.0486 0.0247786 -1.45766e-18)
(1.0413 0.0264795 -7.2776e-19)
(1.0349 0.0285876 2.32542e-17)
(1.02757 0.0312159 -2.17686e-17)
(1.01935 0.0343685 -1.44911e-18)
(1.01036 0.0380586 4.70274e-17)
(1.00049 0.0423328 -4.76805e-17)
(0.989591 0.0472555 1.44275e-18)
(0.977517 0.0529007 4.6101e-17)
(0.964112 0.0593437 -9.35055e-17)
(0.949203 0.0666396 -1.43708e-18)
(0.932601 0.0747687 4.58992e-17)
(0.914106 0.0835284 -1.43227e-18)
(0.893383 0.0923535 -7.15456e-19)
(2.31802 0.016953 0)
(1.27894 0.0329481 -1.44166e-18)
(0.956839 0.0361846 0)
(1.02644 0.0321053 0)
(1.06978 0.0304111 0)
(1.06305 0.0317305 0)
(1.05152 0.0338884 1.43622e-18)
(1.0448 0.0363229 2.4392e-17)
(1.0389 0.0393091 -2.29346e-17)
(1.03203 0.0429967 -1.43202e-18)
(1.02429 0.0473929 2.86124e-18)
(1.01582 0.0525186 0)
(1.00654 0.0584368 -4.42629e-17)
(0.996324 0.0652333 4.42193e-17)
(0.985054 0.0730063 4.56016e-17)
(0.972612 0.0818556 -4.55566e-17)
(0.958858 0.0918545 9.24478e-17)
(0.943631 0.102978 -9.09356e-17)
(0.926756 0.114952 1.4195e-18)
(0.90785 0.127027 1.41868e-18)
(2.34619 0.0200451 -5.59216e-18)
(1.27695 0.0389907 7.06368e-18)
(0.952879 0.0429992 -1.1321e-17)
(1.02735 0.03858 -1.1314e-17)
(1.07218 0.0370392 2.2621e-17)
(1.06581 0.0390157 2.26097e-17)
(1.05493 0.0419514 -2.26002e-17)
(1.04898 0.0452207 1.41195e-18)
(1.0438 0.0491635 1.41136e-18)
(1.03759 0.0539557 4.51448e-17)
(1.03053 0.0596067 -9.02515e-17)
(1.02279 0.0661445 1.40925e-18)
(1.01433 0.0736472 4.64966e-17)
(1.00506 0.0822196 1.40839e-18)
(0.994893 0.0919802 -4.36422e-17)
(0.983769 0.103049 4.78448e-17)
(0.971588 0.115516 1.4066e-18)
(0.958229 0.129351 0)
(0.943564 0.144212 1.40539e-18)
(0.927192 0.159182 1.40517e-18)
(2.37786 0.0229392 5.47224e-18)
(1.27438 0.0440425 -5.52989e-18)
(0.948444 0.0483194 1.38605e-18)
(1.02852 0.0435073 0)
(1.07502 0.0422504 2.2181e-17)
(1.06903 0.0450084 -2.21856e-17)
(1.05893 0.0488249 1.3869e-18)
(1.05389 0.0530218 -4.71646e-17)
(1.04953 0.0579915 -2.77511e-18)
(1.04411 0.0639244 8.88163e-17)
(1.03787 0.0708259 -4.7193e-17)
(1.03103 0.0787292 -1.38832e-18)
(1.02358 0.0877249 -4.72121e-17)
(1.01547 0.097933 -4.58329e-17)
(1.00668 0.109488 8.75149e-17)
(0.997182 0.122525 8.61431e-17)
(0.986945 0.137145 -9.03278e-17)
(0.975891 0.153311 8.75659e-17)
(0.963951 0.170623 -1.79334e-16)
(0.950734 0.188011 8.76108e-17)
(2.41244 0.0258211 0)
(1.27046 0.047962 0)
(0.943353 0.0517921 -1.35513e-18)
(1.03018 0.0466402 2.16981e-17)
(1.07851 0.04593 -2.17173e-17)
(1.07288 0.0496525 -1.3584e-18)
(1.06358 0.0544722 -1.35963e-18)
(1.05951 0.0596919 1.36084e-18)
(1.05602 0.0657492 1.36204e-18)
(1.05144 0.0728368 0)
(1.0461 0.0809538 4.50264e-17)
(1.04026 0.0901382 2.20255e-22)
(1.03395 0.100492 -4.23717e-17)
(1.02718 0.112146 -8.61861e-17)
(1.01996 0.125246 1.75261e-16)
(1.01235 0.139937 -8.63364e-17)
(1.00435 0.156324 8.77838e-17)
(0.995956 0.174369 -8.64868e-17)
(0.987148 0.193621 -8.79363e-17)
(0.977568 0.212884 8.66397e-17)
(2.44908 0.030233 0)
(1.26334 0.0501937 1.31898e-18)
(0.93715 0.0523352 -2.11641e-17)
(1.03266 0.0476561 2.2523e-17)
(1.08291 0.0481004 -2.12276e-17)
(1.07738 0.0529997 2.39195e-17)
(1.06883 0.0589596 0)
(1.06572 0.0653069 1.33316e-18)
(1.06306 0.0724913 0)
(1.05931 0.0807063 -1.33746e-18)
(1.05488 0.0899534 4.28682e-17)
(1.0501 0.10028 -4.29373e-17)
(1.04502 0.111798 -8.60135e-17)
(1.0397 0.124649 8.48059e-17)
(1.03422 0.138983 0)
(1.02867 0.154949 0)
(1.02315 0.172654 8.65702e-17)
(1.01767 0.192062 2.00102e-22)
(1.01229 0.212697 -8.68495e-17)
(1.00668 0.233306 8.83415e-17)
(2.48705 0.0427947 -4.44105e-18)
(1.24828 0.0472963 4.49028e-18)
(0.930119 0.0460901 0)
(1.03745 0.0460933 -1.93847e-18)
(1.08853 0.0491937 -2.07227e-17)
(1.08238 0.0553252 -2.20704e-17)
(1.0745 0.0625339 8.32869e-17)
(1.07225 0.0701537 -4.30476e-17)
(1.07031 0.0784932 -4.18429e-17)
(1.0673 0.0877685 4.32538e-17)
(1.06378 0.0980244 -8.40876e-17)
(1.06008 0.109328 1.68579e-16)
(1.0563 0.121801 1.90095e-22)
(1.05252 0.135586 -8.46958e-17)
(1.04887 0.150832 0)
(1.04551 0.167681 8.51051e-17)
(1.04259 0.186239 -1.70621e-16)
(1.04019 0.206483 8.55169e-17)
(1.03846 0.227953 0)
(1.03715 0.249352 0)
(2.52834 0.0702935 -5.5461e-18)
(1.21501 0.0291653 4.36421e-18)
(0.928428 0.0275174 0)
(1.05005 0.0427494 2.07574e-17)
(1.09575 0.0507005 -2.01924e-17)
(1.08718 0.057395 -4.05106e-17)
(1.08019 0.0656869 -3.76333e-22)
(1.07874 0.0746768 8.15412e-17)
(1.0773 0.0841409 -8.18029e-17)
(1.07497 0.0943509 4.10329e-17)
(1.07237 0.105474 -8.23305e-17)
(1.0698 0.117612 8.25963e-17)
(1.06736 0.130884 -8.28636e-17)
(1.06516 0.145425 8.31323e-17)
(1.06339 0.161368 8.34024e-17)
(1.06223 0.178833 -8.36739e-17)
(1.06193 0.197905 0)
(1.06266 0.218592 -8.42207e-17)
(1.06469 0.240602 8.44967e-17)
(1.06777 0.262692 8.47487e-17)
(0.851674 0.0211666 0)
(0.813619 0.0234366 0)
(0.767886 0.0260444 4.2347e-17)
(0.712353 0.0290493 -2.29858e-17)
(0.644165 0.0324662 -2.51354e-17)
(0.559658 0.0361459 4.15826e-17)
(0.454884 0.0395201 -1.54438e-17)
(0.32596 0.0411951 3.48514e-17)
(0.171274 0.0383331 0)
(0.0480722 0.02183 0)
(0.856738 0.0612918 -1.83743e-17)
(0.819382 0.068202 -5.92243e-17)
(0.774351 0.076176 -2.13004e-17)
(0.719685 0.0853889 2.31231e-17)
(0.652528 0.0958911 2.52814e-17)
(0.569172 0.107223 -5.57539e-17)
(0.465538 0.117674 4.65764e-17)
(0.337481 0.122969 -8.75424e-17)
(0.182307 0.11413 -1.00253e-17)
(0.054618 0.0652161 6.4094e-17)
(0.86742 0.100622 1.84502e-17)
(0.831367 0.11199 -1.98233e-17)
(0.787702 0.125146 4.27793e-17)
(0.734724 0.140348 4.64456e-17)
(0.669568 0.157677 -5.07901e-17)
(0.588441 0.176359 -2.80058e-17)
(0.486998 0.193564 3.1203e-17)
(0.360423 0.202172 -5.27918e-17)
(0.204246 0.18701 8.06357e-17)
(0.0677212 0.10704 -1.52389e-16)
(0.884028 0.138302 3.69267e-17)
(0.849785 0.153945 0)
(0.808045 0.172052 0)
(0.757468 0.192927 -4.64806e-17)
(0.695159 0.216684 5.08282e-17)
(0.617192 0.242231 2.14594e-21)
(0.518828 0.265629 0)
(0.394227 0.277021 7.04524e-17)
(0.236479 0.255451 -6.05281e-17)
(0.0869659 0.146039 1.87728e-16)
(0.906205 0.173053 -3.68315e-17)
(0.874218 0.192639 0)
(0.834889 0.215344 8.53824e-17)
(0.787336 0.241462 0)
(0.728606 0.271137 5.06719e-17)
(0.654589 0.302957 5.58784e-17)
(0.56004 0.331898 0)
(0.437809 0.345504 1.40402e-16)
(0.277903 0.31757 -2.0101e-17)
(0.111629 0.181045 -7.01128e-17)
(0.933152 0.203945 2.03074e-21)
(0.9038 0.227029 -1.5731e-16)
(0.8673 0.253869 -2.71071e-21)
(0.823301 0.284691 0)
(0.768753 0.319663 -5.03397e-17)
(0.699324 0.357049 -5.54907e-17)
(0.609166 0.390773 0)
(0.489585 0.40594 -1.39324e-16)
(0.326963 0.3717 -1.5945e-16)
(0.140723 0.21105 2.31586e-17)
(0.963799 0.230334 7.53049e-22)
(0.937367 0.256422 1.11669e-21)
(0.904034 0.286873 1.68083e-16)
(0.864013 0.321802 -1.29412e-21)
(0.814102 0.361385 -9.96458e-17)
(0.74972 0.403545 -1.098e-16)
(0.664341 0.441176 -3.05522e-17)
(0.547548 0.457124 3.4418e-17)
(0.381718 0.416583 1.18084e-16)
(0.173012 0.235252 2.28409e-16)
(0.99695 0.25187 -1.8035e-21)
(0.97355 0.280504 7.69524e-17)
(0.943611 0.31404 -1.65934e-16)
(0.907859 0.352479 -4.50007e-17)
(0.862864 0.395968 2.45732e-16)
(0.803792 0.44206 1.08254e-16)
(0.723399 0.482636 -1.20393e-16)
(0.60944 0.498483 0)
(0.440029 0.451584 3.87041e-17)
(0.207101 0.253197 -4.03768e-16)
(1.03139 0.268642 -1.24411e-21)
(1.01061 0.299361 -7.57599e-17)
(0.984118 0.335528 4.07304e-21)
(0.952787 0.376955 -8.85313e-17)
(0.91286 0.423716 9.66352e-17)
(0.859334 0.47296 5.31821e-17)
(0.784213 0.515566 5.91082e-17)
(0.673276 0.530469 -3.32309e-17)
(0.500024 0.477108 3.79123e-17)
(0.241621 0.264978 1.7554e-16)
(1.06508 0.282287 -6.9309e-17)
(1.04579 0.314597 -7.43633e-17)
(1.02293 0.353017 8.01139e-17)
(0.996181 0.396949 8.68104e-17)
(0.961603 0.446251 -1.89435e-16)
(0.914095 0.497562 0)
(0.844705 0.540778 0)
(0.736835 0.553343 -3.24831e-17)
(0.55898 0.493107 3.70095e-17)
(0.274461 0.270348 0)
(1.0955 0.303294 6.77837e-17)
(1.07678 0.336698 7.28063e-17)
(1.05753 0.375497 0)
(1.03472 0.419682 -8.5157e-17)
(1.00471 0.468273 0)
(0.962004 0.517084 -1.02458e-16)
(0.896504 0.555387 -5.69884e-17)
(0.789463 0.560718 -6.41539e-17)
(0.606045 0.49252 -1.46621e-16)
(0.299735 0.265686 1.70096e-16)
(1.1277 0.322037 1.64803e-21)
(1.11272 0.35611 -1.48069e-16)
(1.0971 0.394493 2.27781e-21)
(1.07789 0.437687 8.66367e-17)
(1.05146 0.483767 0)
(1.01158 0.527646 1.04309e-16)
(0.946847 0.558096 0)
(0.836765 0.55327 1.30763e-16)
(0.644832 0.475619 1.58834e-20)
(0.318358 0.250694 -1.73582e-16)
(1.16114 0.336679 6.99014e-17)
(1.1504 0.370348 -7.5098e-17)
(1.13835 0.40759 2.43025e-16)
(1.12233 0.448745 -8.79161e-17)
(1.09855 0.491098 -9.60873e-17)
(1.06003 0.528813 -5.29541e-17)
(0.994174 0.550364 2.52468e-21)
(0.87916 0.534835 6.64465e-17)
(0.677624 0.448203 2.66087e-16)
(0.332296 0.229613 4.41615e-17)
(1.1956 0.346332 -1.41467e-16)
(1.18879 0.37887 0)
(1.17995 0.414209 -4.67736e-21)
(1.1665 0.452296 8.89993e-17)
(1.14433 0.489799 2.43252e-16)
(1.1057 0.520361 5.36327e-17)
(1.03706 0.532461 1.1947e-16)
(0.915588 0.50651 -1.01029e-16)
(0.703689 0.412497 -1.92791e-16)
(0.34142 0.204431 1.7928e-16)
(1.23036 0.350674 7.14037e-17)
(1.22692 0.3814 7.67188e-17)
(1.22068 0.414083 -1.65569e-16)
(1.20891 0.448163 -4.49406e-17)
(1.18704 0.479826 -1.96551e-16)
(1.14665 0.502421 -1.6256e-16)
(1.07337 0.504766 -2.41469e-16)
(0.943895 0.469064 1.3619e-16)
(0.721177 0.36984 0)
(0.345073 0.176416 -2.04128e-16)
(1.26443 0.3495 1.07838e-16)
(1.26365 0.377789 0)
(1.25913 0.40713 0)
(1.24791 0.43641 0)
(1.22487 0.461476 0)
(1.18092 0.475608 1.09187e-16)
(1.10118 0.468291 1.21669e-16)
(0.962358 0.423937 0)
(0.728912 0.322006 0)
(0.343038 0.146877 -9.15134e-17)
(1.29675 0.342835 -3.60992e-17)
(1.29774 0.36814 -9.04602e-22)
(1.29388 0.393549 -4.18622e-17)
(1.28187 0.417416 4.54555e-17)
(1.25603 0.435399 -4.97161e-17)
(1.20674 0.440939 1.37108e-16)
(1.1189 0.424491 -3.05617e-17)
(0.969848 0.373 6.89737e-17)
(0.726442 0.271032 -1.97631e-17)
(0.335508 0.117107 9.20228e-17)
(1.32624 0.330936 7.23121e-17)
(1.32796 0.352815 -3.88499e-17)
(1.32352 0.373831 0)
(1.30925 0.391869 -4.55316e-17)
(1.27895 0.402569 0)
(1.22265 0.399747 -5.49386e-17)
(1.12541 0.375095 -3.06137e-17)
(0.965814 0.318308 3.45487e-17)
(0.71391 0.218974 0)
(0.322973 0.0882766 -1.15258e-17)
(1.35188 0.314268 -5.4174e-17)
(1.35317 0.332405 3.8806e-17)
(1.34684 0.348707 0)
(1.32884 0.360702 0)
(1.29256 0.364179 4.97393e-17)
(1.2279 0.35354 -2.74358e-17)
(1.12048 0.321938 -3.05759e-17)
(0.950631 0.261927 -6.9016e-17)
(0.692208 0.167799 3.95512e-17)
(0.306215 0.0614125 -5.17927e-17)
(1.37298 0.293472 5.39719e-17)
(1.37281 0.307573 -5.94495e-22)
(1.36336 0.318853 -2.08591e-17)
(1.34024 0.324643 0)
(1.29654 0.321095 -2.47705e-17)
(1.22234 0.303429 -1.36604e-17)
(1.1042 0.266471 3.80595e-17)
(0.924741 0.205625 8.58903e-18)
(0.662035 0.119295 -4.42915e-17)
(0.285768 0.0373957 5.15445e-17)
(1.11052 0.279109 -4.17265e-16)
(1.14016 0.295944 1.03214e-16)
(1.17031 0.309552 0)
(1.20138 0.318936 1.02094e-16)
(1.233 0.323818 -3.47547e-23)
(1.26424 0.32401 -1.5609e-18)
(1.29422 0.319475 7.76492e-19)
(1.32203 0.310371 -4.98737e-17)
(1.34681 0.297021 4.97164e-17)
(1.36781 0.279998 -2.46116e-17)
(1.12137 0.266657 2.08093e-16)
(1.14866 0.280739 0)
(1.17627 0.292259 0)
(1.20464 0.300325 1.0036e-16)
(1.23371 0.304623 1.5691e-18)
(1.26263 0.304981 -7.79753e-19)
(1.29063 0.301348 7.75799e-19)
(1.31694 0.293826 4.86778e-17)
(1.34084 0.282647 -4.9298e-17)
(1.3615 0.268334 2.45965e-17)
(1.13166 0.256134 0)
(1.15631 0.267955 -1.02851e-16)
(1.18138 0.277383 1.01918e-16)
(1.20714 0.28397 -1.01113e-16)
(1.23369 0.287431 0)
(1.26029 0.287616 -7.80057e-19)
(1.28626 0.284476 -9.85893e-17)
(1.31096 0.27808 0)
(1.33381 0.268599 0)
(1.35393 0.256498 -2.46241e-17)
(1.1407 0.245923 0)
(1.16313 0.255732 1.21708e-21)
(1.18589 0.263376 -1.01835e-16)
(1.20924 0.268667 1.01074e-16)
(1.23337 0.271366 7.84553e-19)
(1.25768 0.271346 -1.00658e-16)
(1.28161 0.268565 -2.78251e-22)
(1.30463 0.263067 0)
(1.32628 0.25498 0)
(1.34568 0.244702 0)
(1.14814 0.235924 -1.03455e-16)
(1.1687 0.244083 2.05157e-16)
(1.18948 0.250275 7.94919e-19)
(1.21071 0.254473 -1.01826e-16)
(1.23268 0.256498 -7.84563e-19)
(1.25488 0.256253 -9.99115e-17)
(1.27687 0.253711 1.5001e-16)
(1.29823 0.248907 -3.87304e-19)
(1.31861 0.241938 -4.90621e-17)
(1.33715 0.23314 -2.46802e-17)
(1.15406 0.226102 2.0652e-16)
(1.17299 0.232954 -1.02443e-16)
(1.19204 0.237998 1.01667e-16)
(1.21147 0.24131 1.00209e-16)
(1.23153 0.242766 1.01996e-16)
(1.25186 0.242306 9.91648e-17)
(1.27208 0.239921 -4.97748e-17)
(1.29187 0.235644 -3.87631e-19)
(1.31098 0.229557 3.86402e-19)
(1.32859 0.221951 2.47079e-17)
(1.15863 0.216457 -1.03468e-16)
(1.17609 0.22225 -1.01906e-16)
(1.19365 0.226391 -1.01585e-16)
(1.21151 0.229005 -1.00961e-16)
(1.22994 0.23001 -9.96433e-17)
(1.24861 0.229374 9.84176e-17)
(1.26725 0.227107 -4.90275e-17)
(1.28559 0.223244 0)
(1.30349 0.21786 9.90968e-17)
(1.32015 0.211214 0)
(1.16201 0.207007 0)
(1.17817 0.211931 1.02171e-16)
(1.1944 0.215359 -1.01501e-16)
(1.21091 0.217429 7.88448e-19)
(1.22791 0.218091 -1.01998e-16)
(1.24514 0.21733 -1.00014e-16)
(1.26238 0.215168 5.0615e-17)
(1.27943 0.211645 -4.97009e-17)
(1.29618 0.206833 -9.91972e-17)
(1.31192 0.200967 0)
(1.16436 0.197779 -1.02678e-16)
(1.17935 0.201986 0)
(1.19441 0.204847 1.01418e-16)
(1.20974 0.206498 1.01673e-16)
(1.2255 0.206905 1.27282e-22)
(1.24147 0.206066 9.92663e-17)
(1.25748 0.204009 0)
(1.27337 0.200778 4.97425e-17)
(1.28906 0.196443 4.98427e-17)
(1.30392 0.191221 -2.49859e-17)
(1.16583 0.188795 1.02486e-16)
(1.17977 0.19241 -1.01901e-16)
(1.1938 0.194819 1.01335e-16)
(1.20809 0.196147 -1.00059e-16)
(1.22275 0.19637 1.99292e-16)
(1.23762 0.195492 -9.85181e-17)
(1.25255 0.193546 -7.79663e-19)
(1.2674 0.190574 -3.88937e-19)
(1.28214 0.186645 -4.9311e-17)
(1.29618 0.181963 2.48202e-17)
(1.16657 0.180074 0)
(1.17957 0.1832 1.01767e-16)
(1.19268 0.185248 -1.01252e-16)
(1.20603 0.186327 -7.87561e-19)
(1.21974 0.186421 -9.88625e-17)
(1.23364 0.185536 -7.82164e-19)
(1.24761 0.183705 -7.80129e-19)
(1.26154 0.180969 7.78544e-19)
(1.27542 0.177395 4.97495e-17)
(1.28868 0.173174 2.48486e-17)
(1.1667 0.171631 1.02501e-16)
(1.17886 0.174353 -3.97006e-19)
(1.19113 0.176112 0)
(1.20367 0.177 0)
(1.21652 0.177006 7.84623e-19)
(1.22956 0.176137 -5.16398e-17)
(1.24268 0.174425 1.35807e-23)
(1.25579 0.171907 5.0258e-17)
(1.26888 0.168648 3.89066e-19)
(1.28144 0.164827 -2.48767e-17)
(1.16633 0.163476 -1.01912e-16)
(1.17774 0.165864 -1.01498e-16)
(1.18927 0.16739 -1.01086e-16)
(1.20106 0.168131 -7.86968e-19)
(1.21314 0.16808 1.34117e-23)
(1.22542 0.167244 5.0092e-17)
(1.23778 0.165651 7.81105e-19)
(1.25015 0.163336 1.02427e-22)
(1.26253 0.160361 0)
(1.27445 0.156891 0)
(1.16556 0.155615 -1.02119e-16)
(1.17628 0.157725 2.03126e-16)
(1.18714 0.159064 1.01004e-16)
(1.19827 0.159694 0)
(1.20967 0.159609 -9.96495e-17)
(1.22125 0.158816 4.9326e-17)
(1.23293 0.157341 0)
(1.24463 0.155216 -5.03425e-17)
(1.25637 0.152497 -2.45608e-17)
(1.2677 0.149341 0)
(1.16447 0.148048 1.01929e-16)
(1.17458 0.149929 -1.01627e-16)
(1.18484 0.151117 0)
(1.19535 0.151662 9.98702e-17)
(1.20614 0.151559 1.00435e-16)
(1.21709 0.150817 -1.00252e-16)
(1.22815 0.149457 -4.927e-17)
(1.23925 0.147508 0)
(1.2504 0.145022 2.4976e-17)
(1.26119 0.142147 0)
(1.16313 0.140775 1.01343e-16)
(1.17269 0.142465 0)
(1.18239 0.14353 0)
(1.19236 0.144011 -9.98325e-17)
(1.20258 0.143903 -1.12444e-23)
(1.21297 0.143215 4.85759e-17)
(1.22347 0.141966 5.08654e-17)
(1.23402 0.14018 -3.90908e-19)
(1.24463 0.137908 1.95327e-19)
(1.25492 0.135287 1.95237e-19)
(1.16159 0.133791 -2.0231e-16)
(1.17065 0.135322 1.00966e-16)
(1.17986 0.136288 7.87148e-19)
(1.18933 0.13672 -7.8579e-19)
(1.19903 0.136616 -5.02181e-17)
(1.20891 0.135983 0)
(1.21889 0.134838 0)
(1.22894 0.133205 5.00788e-17)
(1.23905 0.131128 0)
(1.24888 0.128736 0)
(1.15992 0.127089 1.01362e-16)
(1.16852 0.128487 -1.01228e-16)
(1.17727 0.129371 7.86504e-19)
(1.18628 0.129767 -1.02113e-16)
(1.19552 0.129672 5.10031e-17)
(1.20492 0.129095 0)
(1.21444 0.128049 -7.83506e-19)
(1.22402 0.126557 -4.97294e-17)
(1.23368 0.124659 1.95725e-19)
(1.24309 0.122475 1.95683e-19)
(1.15814 0.120661 -1.01174e-16)
(1.16632 0.121947 3.93367e-19)
(1.17466 0.122764 -1.00591e-16)
(1.18326 0.123132 1.00504e-16)
(1.19207 0.123051 7.84662e-19)
(1.20104 0.122528 -7.84281e-19)
(1.21012 0.121575 4.93916e-17)
(1.21928 0.120213 7.83806e-19)
(1.22851 0.118478 0)
(1.23752 0.116484 0)
(1.15629 0.114496 -3.92641e-19)
(1.16409 0.115687 1.00962e-16)
(1.17206 0.116449 1.00509e-16)
(1.18027 0.116797 -1.01251e-16)
(1.18868 0.116732 5.10035e-17)
(1.19726 0.116261 0)
(1.20595 0.115395 -5.02065e-17)
(1.21471 0.114152 -3.92229e-19)
(1.22355 0.112568 3.92243e-19)
(1.23219 0.110746 0)
(1.1544 0.108585 3.92495e-19)
(1.16185 0.109694 -1.0083e-16)
(1.16947 0.110409 -1.00426e-16)
(1.17733 0.110743 1.00428e-16)
(1.18538 0.110696 -1.00438e-16)
(1.19359 0.110274 0)
(1.20192 0.109488 0)
(1.21031 0.108356 -3.92561e-19)
(1.21879 0.106909 -2.49327e-17)
(1.2271 0.105245 2.53297e-17)
(1.15248 0.102915 9.98311e-17)
(1.15962 0.103954 -9.99143e-17)
(1.16692 0.10463 1.00344e-16)
(1.17446 0.104953 -5.09789e-17)
(1.18218 0.104924 7.84707e-19)
(1.19005 0.104548 0)
(1.19804 0.103838 -5.02685e-17)
(1.2061 0.102807 -3.92893e-19)
(1.21424 0.101486 2.55478e-17)
(1.22223 0.0999661 -2.51622e-17)
(1.15056 0.0974742 0)
(1.15741 0.0984522 1.00175e-16)
(1.16442 0.0990952 -1.00262e-16)
(1.17166 0.0994103 5.09595e-17)
(1.17908 0.0993988 4.94347e-17)
(1.18664 0.0990674 0)
(1.19431 0.0984259 4.95135e-17)
(1.20206 0.097488 3.93233e-19)
(1.20989 0.0962826 1.96725e-19)
(1.21758 0.0948947 1.96806e-19)
(1.14866 0.092252 3.9005e-19)
(1.15524 0.0931763 -3.90799e-19)
(1.16199 0.0937901 1.0018e-16)
(1.16895 0.0940992 7.83688e-19)
(1.17609 0.0941052 -5.02195e-17)
(1.18336 0.0938146 4.94925e-17)
(1.19075 0.0932369 -4.95441e-17)
(1.19821 0.0923847 2.40071e-17)
(1.20575 0.0912852 5.90771e-19)
(1.21316 0.090018 -1.97032e-19)
(1.14678 0.0872364 9.92801e-17)
(1.15312 0.0881126 3.90289e-19)
(1.15962 0.0887007 0)
(1.16633 0.089005 0)
(1.17321 0.0890276 2.38865e-23)
(1.18022 0.0887749 -5.02949e-17)
(1.18734 0.0882558 9.99362e-17)
(1.19453 0.0874824 3.93913e-19)
(1.2018 0.0864802 1.97128e-19)
(1.20895 0.0853234 1.28217e-17)
(1.14494 0.082416 -9.90978e-17)
(1.15106 0.0832488 -3.89779e-19)
(1.15733 0.0838136 -5.00078e-17)
(1.16381 0.0841137 0)
(1.17045 0.0841517 5.02197e-17)
(1.17721 0.0839339 0)
(1.18408 0.0834688 -4.96052e-17)
(1.19103 0.0827678 -2.64131e-17)
(1.19804 0.0818547 3.94656e-19)
(1.20495 0.0807993 1.42747e-23)
(1.14315 0.0777796 -9.96914e-17)
(1.14906 0.0785725 3.8927e-19)
(1.15512 0.0791158 4.99669e-17)
(1.16139 0.0794121 -7.82787e-19)
(1.1678 0.0794642 7.84686e-19)
(1.17434 0.0792783 0)
(1.18099 0.0788627 -7.87867e-19)
(1.1877 0.0782281 3.94565e-19)
(1.19448 0.077397 1.97532e-19)
(1.20117 0.0764345 -1.24558e-17)
(1.14141 0.0733165 9.87343e-17)
(1.14713 0.0740723 3.88763e-19)
(1.153 0.0745953 -7.80089e-19)
(1.15907 0.0748876 1.56498e-18)
(1.16528 0.0749523 -7.84686e-19)
(1.17161 0.0747956 0)
(1.17804 0.0744253 -2.52274e-17)
(1.18454 0.0738516 0)
(1.1911 0.0730958 0)
(1.19758 0.0722187 1.26682e-17)
(1.13973 0.0690162 4.94698e-17)
(1.14527 0.069737 0)
(1.15097 0.0702405 0)
(1.15685 0.0705284 -7.82185e-19)
(1.16288 0.0706042 -4.9435e-17)
(1.16902 0.0704738 0)
(1.17525 0.0701449 2.60318e-17)
(1.18155 0.0696272 -1.18569e-18)
(1.18791 0.0689405 3.95872e-19)
(1.19419 0.0681419 -1.26828e-17)
(1.13811 0.0648688 -9.91444e-17)
(1.1435 0.065556 3.8775e-19)
(1.14904 0.0660403 7.78811e-19)
(1.15475 0.0663234 -5.16045e-17)
(1.1606 0.0664085 1.02009e-16)
(1.16656 0.0663019 -7.87175e-19)
(1.17261 0.0660108 2.52585e-17)
(1.17872 0.0655443 -3.95563e-19)
(1.18489 0.0649212 1.98141e-19)
(1.191 0.0641947 1.98398e-19)
(1.13657 0.0608643 4.8904e-17)
(1.14181 0.061519 3.87245e-19)
(1.1472 0.0619844 0)
(1.15275 0.0622618 4.92398e-17)
(1.15844 0.0623548 -4.94349e-17)
(1.16424 0.0622694 2.51979e-17)
(1.17012 0.0620125 2.16059e-24)
(1.17606 0.061593 -3.95899e-19)
(1.18206 0.0610285 3.96687e-19)
(1.18799 0.0603684 0)
(1.1351 0.0569936 -3.84366e-19)
(1.1402 0.0576166 3.86742e-19)
(1.14545 0.0580628 0)
(1.15086 0.0583337 -5.0002e-17)
(1.1564 0.0584329 7.84676e-19)
(1.16205 0.0583663 -5.12003e-17)
(1.16777 0.0581406 -2.52897e-17)
(1.17356 0.057764 -2.57554e-17)
(1.17939 0.0572533 1.98549e-19)
(1.18517 0.0566544 1.98857e-19)
(1.1337 0.0532476 -4.94928e-17)
(1.13868 0.0538392 4.98246e-17)
(1.1438 0.0542661 0)
(1.14908 0.0545296 5.07637e-17)
(1.15448 0.0546334 -7.8468e-19)
(1.15999 0.0545833 2.52147e-17)
(1.16557 0.0543857 0)
(1.17121 0.0540485 2.49842e-17)
(1.17689 0.0535873 5.96256e-19)
(1.18253 0.0530449 -1.99088e-19)
(1.13238 0.0496178 4.86367e-17)
(1.13724 0.0501781 3.85693e-19)
(1.14225 0.0505853 7.7626e-19)
(1.14741 0.0508404 -7.80679e-19)
(1.15269 0.0509473 0)
(1.15806 0.0509116 2.5223e-17)
(1.16351 0.0507393 -2.61122e-17)
(1.16901 0.0504381 2.57992e-17)
(1.17455 0.0500225 1.98959e-19)
(1.18006 0.0495321 1.29557e-17)
(1.13114 0.0460957 -4.89303e-17)
(1.1359 0.0466249 -4.931e-17)
(1.1408 0.0470118 0)
(1.14585 0.0472575 0)
(1.15101 0.047366 0)
(1.15626 0.0473426 -5.04628e-17)
(1.16159 0.0471932 7.91763e-19)
(1.16696 0.0469249 -2.66157e-17)
(1.17238 0.0465512 3.98326e-19)
(1.17776 0.0461089 -1.27711e-17)
(1.12998 0.0426735 -3.81526e-19)
(1.13464 0.0431714 3.84736e-19)
(1.13945 0.0435374 -7.74986e-19)
(1.14439 0.0437728 7.80073e-19)
(1.14945 0.0438814 7.84666e-19)
(1.15459 0.0438685 -7.88742e-19)
(1.1598 0.0437395 2.45599e-17)
(1.16506 0.0435012 3.97591e-19)
(1.17036 0.0431663 3.98737e-19)
(1.17562 0.0427685 0)
(1.1289 0.0393435 4.83717e-17)
(1.13348 0.0398099 3.84237e-19)
(1.13819 0.0401544 2.47793e-17)
(1.14304 0.0403785 7.79764e-19)
(1.148 0.0404859 -5.06243e-24)
(1.15304 0.0404816 -7.89003e-19)
(1.15815 0.0403709 0)
(1.16331 0.04016 0)
(1.16849 0.0398608 1.27727e-17)
(1.17365 0.0395041 0)
(1.1279 0.0360984 3.80187e-19)
(1.1324 0.0365329 -3.83739e-19)
(1.13704 0.0368553 -2.55327e-17)
(1.1418 0.0370671 4.85688e-24)
(1.14667 0.0371719 7.84663e-19)
(1.15162 0.0371747 2.52565e-17)
(1.15663 0.0370802 2.53835e-17)
(1.16169 0.0368944 -3.98264e-19)
(1.16677 0.0366281 -1.23864e-17)
(1.17183 0.0363097 0)
(1.12699 0.0329311 -3.79497e-19)
(1.13142 0.0333333 3.83241e-19)
(1.13598 0.0336329 -2.47386e-17)
(1.14066 0.0338314 0)
(1.14545 0.0339325 0)
(1.15031 0.0339407 0)
(1.15524 0.0338606 -2.53992e-17)
(1.16021 0.0336977 -1.3154e-17)
(1.1652 0.0334619 3.99977e-19)
(1.17017 0.033179 0)
(1.12615 0.0298348 -3.78809e-19)
(1.13052 0.0302041 3.82745e-19)
(1.13501 0.0304802 2.39459e-17)
(1.13962 0.0306646 4.66714e-24)
(1.14434 0.0307608 7.84653e-19)
(1.14913 0.0307731 0)
(1.15398 0.0307057 7.94211e-19)
(1.15886 0.0305638 1.15694e-17)
(1.16378 0.0303562 -1.24121e-17)
(1.16867 0.0301063 0)
(1.1254 0.0268029 0)
(1.12971 0.0271388 2.44639e-17)
(1.13414 0.0273906 2.4698e-17)
(1.13869 0.02756 -7.78547e-19)
(1.14334 0.0276503 7.84648e-19)
(1.14806 0.0276653 0)
(1.15284 0.0276091 1.351e-17)
(1.15765 0.0274863 -1.19786e-18)
(1.16249 0.027305 1.30262e-17)
(1.1673 0.027086 2.00949e-19)
(1.12473 0.0238287 -3.7744e-19)
(1.12898 0.0241306 -2.40505e-17)
(1.13336 0.0243575 -2.39066e-17)
(1.13786 0.0245111 -4.51464e-24)
(1.14244 0.0245945 -7.84642e-19)
(1.1471 0.0246112 0)
(1.15182 0.0245648 -1.35183e-17)
(1.15657 0.0244596 3.99631e-19)
(1.16134 0.0243027 6.01834e-19)
(1.16609 0.0241125 -2.01184e-19)
(1.12413 0.020906 3.76758e-19)
(1.12834 0.0211733 -3.81262e-19)
(1.13268 0.0213746 0)
(1.13712 0.0215117 0)
(1.14166 0.0215872 0)
(1.14626 0.0216046 -1.26491e-17)
(1.15092 0.0215669 -1.2731e-17)
(1.15561 0.0214779 -3.99967e-19)
(1.16032 0.0213438 2.00822e-19)
(1.16501 0.0211808 2.0142e-19)
(1.12362 0.0180283 -3.76078e-19)
(1.12779 0.0182604 3.80769e-19)
(1.13208 0.0184356 1.30885e-17)
(1.13648 0.0185555 -1.32198e-17)
(1.14097 0.0186226 0)
(1.14553 0.0186397 2.53065e-17)
(1.15014 0.0186096 1.27388e-17)
(1.15478 0.0185356 6.00466e-18)
(1.15944 0.0184229 -6.23189e-18)
(1.16408 0.0182854 2.01656e-19)
(1.12317 0.0151893 -1.23882e-17)
(1.12732 0.0153857 1.25491e-17)
(1.13158 0.0155344 -1.23085e-17)
(1.13594 0.0156366 2.40971e-17)
(1.14039 0.0156945 7.84621e-19)
(1.14491 0.0157107 -2.53148e-17)
(1.14948 0.0156874 6.37335e-18)
(1.15407 0.0156272 -6.81111e-18)
(1.15868 0.0155346 6.8421e-18)
(1.16328 0.0154214 0)
(1.12281 0.0123828 1.23659e-17)
(1.12692 0.0125432 -3.79789e-19)
(1.13116 0.0126649 -7.68646e-19)
(1.13549 0.0127491 -1.16553e-17)
(1.13991 0.0127975 0)
(1.14439 0.0128121 1.26616e-17)
(1.14892 0.0127946 -7.17445e-18)
(1.15348 0.0127474 -5.21295e-18)
(1.15806 0.0126739 -6.04345e-19)
(1.16262 0.0125835 2.0213e-19)
(1.12252 0.00960275 -1.19696e-17)
(1.12661 0.00972697 -2.19767e-24)
(1.13082 0.00982157 7.68014e-19)
(1.13513 0.00988742 -1.55343e-18)
(1.13953 0.00992583 1.56921e-18)
(1.14398 0.00993824 -7.12446e-18)
(1.14849 0.00992605 5.58358e-18)
(1.15302 0.00989084 3.61207e-18)
(1.15756 0.00983539 3.83151e-18)
(1.16209 0.00976692 -2.02368e-19)
(1.1223 0.00684303 1.15747e-17)
(1.12638 0.00693095 -1.1743e-17)
(1.13058 0.0069983 0)
(1.13487 0.00704558 0)
(1.13924 0.00707362 7.84593e-19)
(1.14368 0.00708338 5.54306e-18)
(1.14816 0.00707579 -6.38517e-18)
(1.15267 0.00705193 2.81179e-18)
(1.15718 0.00701373 -3.02803e-18)
(1.16169 0.00696625 2.02606e-19)
(1.12215 0.00409776 3.72707e-19)
(1.12623 0.00414919 -3.7832e-19)
(1.13041 0.00418899 3.06702e-18)
(1.1347 0.00421732 -7.76098e-19)
(1.13906 0.00423454 3.13834e-18)
(1.14348 0.00424115 -2.37638e-18)
(1.14794 0.00423763 0)
(1.15243 0.00422458 -4.02028e-19)
(1.15693 0.00420308 4.04161e-19)
(1.16142 0.00417608 -8.11377e-19)
(1.12208 0.00136292 -3.73064e-19)
(1.12615 0.00137887 3.78908e-19)
(1.13033 0.00139148 -3.84183e-18)
(1.13461 0.00140072 7.78127e-19)
(1.13896 0.00140662 -1.57398e-18)
(1.14338 0.0014093 1.58975e-18)
(1.14783 0.00140888 0)
(1.15232 0.00140549 -4.03678e-19)
(1.15681 0.00139944 2.02957e-19)
(1.16129 0.00139163 1.01878e-18)
(2.56528 0.0651718 0)
(1.17528 0.00765882 0)
(0.944625 0.015339 0)
(1.07115 0.0434536 0)
(1.1012 0.0534136 0)
(1.08956 0.0590278 0)
(1.08436 0.067488 0)
(1.08365 0.0771496 0)
(1.0825 0.0870486 0)
(1.08077 0.097501 0)
(1.07903 0.108798 0)
(1.07747 0.121052 0)
(1.07616 0.134359 0)
(1.07525 0.148836 0)
(1.07493 0.164597 0)
(1.07541 0.181735 0)
(1.07697 0.2003 0)
(1.08 0.220235 0)
(1.08502 0.241204 0)
(1.09162 0.261788 0)
(2.57712 0.0402665 0)
(1.14937 0.0148811 0)
(0.950174 0.0228245 0)
(1.08005 0.0433321 0)
(1.10282 0.0530747 0)
(1.09048 0.0599438 0)
(1.08672 0.0686378 0)
(1.08663 0.0782296 0)
(1.08588 0.0881225 0)
(1.08474 0.0985499 0)
(1.08375 0.109732 0)
(1.08301 0.121767 0)
(1.0826 0.134738 0)
(1.08268 0.148739 0)
(1.08344 0.163851 0)
(1.08509 0.180131 0)
(1.08791 0.197578 0)
(1.09227 0.216037 0)
(1.0986 0.234949 0)
(1.10593 0.252667 0)
(2.58197 0.0221125 0)
(1.13389 0.0206841 0)
(0.948037 0.0286425 0)
(1.08142 0.0426608 0)
(1.10228 0.0523459 0)
(1.09032 0.0604461 0)
(1.08774 0.0693374 0)
(1.0884 0.0788131 0)
(1.08825 0.088653 0)
(1.08781 0.0990064 0)
(1.08759 0.110021 0)
(1.08765 0.121782 0)
(1.08811 0.13436 0)
(1.0891 0.147825 0)
(1.09081 0.162229 0)
(1.09345 0.177595 0)
(1.09727 0.193875 0)
(1.10257 0.210873 0)
(1.1097 0.227985 0)
(1.11783 0.243701 0)
(2.58521 0.0139502 0)
(1.12539 0.0210234 0)
(0.944256 0.0297783 0)
(1.08011 0.0414876 0)
(1.10077 0.0514017 0)
(1.08935 0.060263 0)
(1.08775 0.0693644 0)
(1.08921 0.0788376 0)
(1.08976 0.0886538 0)
(1.09005 0.098923 0)
(1.09059 0.109758 0)
(1.09144 0.121234 0)
(1.09271 0.133414 0)
(1.09453 0.146346 0)
(1.09709 0.160061 0)
(1.10057 0.174555 0)
(1.1052 0.189759 0)
(1.11122 0.205465 0)
(1.11891 0.221111 0)
(1.12762 0.235284 0)
(2.58818 0.0105087 0)
(1.12087 0.0199577 0)
(0.941231 0.0292186 0)
(1.07843 0.0400993 0)
(1.09913 0.0501326 0)
(1.0881 0.0594279 0)
(1.08722 0.0687322 0)
(1.08939 0.0782573 0)
(1.09062 0.0880575 0)
(1.09161 0.098231 0)
(1.09286 0.108874 0)
(1.09445 0.120054 0)
(1.09646 0.131825 0)
(1.09903 0.144221 0)
(1.10233 0.157257 0)
(1.10653 0.170912 0)
(1.11181 0.185106 0)
(1.11838 0.199634 0)
(1.12648 0.213978 0)
(1.13558 0.226815 0)
(2.59127 0.00905705 0)
(1.1187 0.0190484 0)
(0.939291 0.0283375 0)
(1.07713 0.0386899 0)
(1.09779 0.0486674 0)
(1.08695 0.058163 0)
(1.08656 0.0675963 0)