/*--------------------------------*- C++ -*----------------------------------*\
  =========                 |
  \\      /  F ield         | OpenFOAM: The Open Source CFD Toolbox
   \\    /   O peration     | Website:  https://openfoam.org
    \\  /    A nd           | Version:  6
     \\/     M anipulation  |
\*---------------------------------------------------------------------------*/
FoamFile
{
    version     2.0;
    format      ascii;
    class       volScalarField;
    location    "1.45";
    object      p;
}
// * * * * * * * * * * * * * * * * * * * * * * * * * * * * * * * * * * * * * //

dimensions      [0 2 -2 0 0 0 0];

internalField   nonuniform List<scalar> 
5600
(
993.401
995.249
996.598
996.608
996.456
996.437
996.458
996.471
996.477
996.484
996.493
996.502
996.511
996.522
996.534
996.546
996.56
996.576
996.592
996.611
993.323
995.282
996.625
996.608
996.454
996.437
996.459
996.471
996.477
996.484
996.492
996.501
996.511
996.521
996.533
996.545
996.559
996.574
996.591
996.609
993.28
995.295
996.637
996.609
996.452
996.437
996.459
996.47
996.476
996.482
996.49
996.499
996.508
996.518
996.529
996.541
996.554
996.569
996.584
996.601
993.232
995.302
996.648
996.609
996.451
996.436
996.457
996.468
996.473
996.479
996.486
996.494
996.503
996.512
996.522
996.533
996.545
996.558
996.572
996.587
993.175
995.31
996.659
996.609
996.448
996.434
996.455
996.464
996.469
996.474
996.48
996.487
996.495
996.503
996.512
996.522
996.532
996.544
996.555
996.567
993.111
995.318
996.672
996.608
996.444
996.431
996.451
996.46
996.463
996.467
996.473
996.479
996.485
996.492
996.5
996.508
996.516
996.525
996.534
996.542
993.042
995.33
996.686
996.607
996.439
996.427
996.447
996.454
996.456
996.459
996.463
996.468
996.473
996.479
996.485
996.491
996.497
996.502
996.508
996.512
992.968
995.347
996.703
996.604
996.433
996.421
996.441
996.446
996.447
996.449
996.452
996.456
996.459
996.463
996.467
996.471
996.474
996.477
996.479
996.479
992.881
995.374
996.723
996.597
996.423
996.415
996.433
996.437
996.437
996.438
996.44
996.442
996.445
996.447
996.449
996.45
996.451
996.45
996.448
996.444
992.705
995.447
996.753
996.575
996.409
996.408
996.425
996.427
996.426
996.426
996.427
996.428
996.429
996.429
996.429
996.429
996.427
996.423
996.417
996.409
996.635
996.666
996.702
996.744
996.791
996.845
996.907
996.973
997.047
997.222
996.632
996.662
996.697
996.738
996.784
996.836
996.895
996.959
997.028
997.204
996.622
996.651
996.685
996.723
996.767
996.816
996.871
996.931
996.995
997.165
996.604
996.63
996.662
996.698
996.738
996.783
996.833
996.887
996.944
997.106
996.579
996.602
996.632
996.664
996.7
996.74
996.783
996.829
996.879
997.028
996.548
996.567
996.594
996.622
996.653
996.686
996.722
996.76
996.799
996.934
996.512
996.527
996.55
996.574
996.599
996.626
996.653
996.681
996.709
996.826
996.472
996.483
996.503
996.522
996.541
996.56
996.579
996.596
996.613
996.708
996.429
996.437
996.453
996.467
996.479
996.491
996.501
996.509
996.514
996.585
996.385
996.391
996.403
996.411
996.418
996.422
996.422
996.418
996.409
996.456
996.348
996.356
996.361
996.362
996.359
996.349
996.331
996.304
996.273
996.308
996.307
996.311
996.309
996.303
996.293
996.273
996.244
996.204
996.162
996.175
996.263
996.262
996.254
996.242
996.223
996.196
996.158
996.11
996.06
996.05
996.217
996.211
996.197
996.179
996.153
996.118
996.073
996.018
995.961
995.93
996.169
996.158
996.14
996.116
996.084
996.042
995.99
995.929
995.868
995.818
996.122
996.106
996.083
996.054
996.017
995.97
995.913
995.848
995.783
995.717
996.075
996.056
996.029
995.996
995.954
995.904
995.843
995.776
995.709
995.628
996.031
996.008
995.978
995.942
995.897
995.844
995.782
995.714
995.646
995.553
995.99
995.964
995.932
995.893
995.848
995.793
995.731
995.663
995.595
995.491
995.953
995.925
995.891
995.852
995.805
995.751
995.689
995.622
995.553
995.441
996.343
996.301
996.258
996.214
996.17
996.126
996.083
996.042
996.005
995.971
996.329
996.289
996.248
996.208
996.167
996.127
996.088
996.051
996.016
995.985
996.312
996.274
996.236
996.2
996.163
996.126
996.091
996.057
996.026
995.997
996.297
996.262
996.226
996.193
996.159
996.126
996.094
996.063
996.034
996.007
996.284
996.251
996.218
996.187
996.156
996.126
996.096
996.068
996.042
996.017
996.271
996.241
996.211
996.182
996.154
996.126
996.099
996.073
996.048
996.025
996.26
996.232
996.204
996.178
996.152
996.126
996.101
996.077
996.054
996.032
996.251
996.224
996.199
996.174
996.15
996.126
996.103
996.081
996.059
996.039
996.242
996.217
996.194
996.171
996.148
996.126
996.105
996.084
996.064
996.045
996.234
996.211
996.189
996.168
996.147
996.126
996.106
996.087
996.068
996.05
996.227
996.206
996.185
996.166
996.146
996.127
996.108
996.09
996.072
996.055
996.22
996.201
996.182
996.163
996.145
996.127
996.109
996.092
996.075
996.059
996.215
996.196
996.178
996.161
996.144
996.127
996.11
996.094
996.079
996.063
996.209
996.192
996.176
996.159
996.143
996.127
996.111
996.096
996.081
996.067
996.205
996.188
996.173
996.157
996.142
996.127
996.112
996.098
996.084
996.07
996.2
996.185
996.17
996.156
996.141
996.127
996.113
996.099
996.086
996.073
996.196
996.182
996.168
996.154
996.141
996.127
996.114
996.101
996.088
996.075
996.193
996.179
996.166
996.153
996.14
996.127
996.115
996.102
996.09
996.078
996.189
996.176
996.164
996.152
996.139
996.127
996.115
996.103
996.092
996.08
996.186
996.174
996.162
996.151
996.139
996.127
996.116
996.104
996.093
996.082
996.183
996.172
996.161
996.149
996.138
996.127
996.116
996.105
996.095
996.084
996.18
996.17
996.159
996.148
996.138
996.127
996.117
996.106
996.096
996.086
996.178
996.168
996.158
996.147
996.137
996.127
996.117
996.107
996.097
996.087
996.176
996.166
996.156
996.146
996.137
996.127
996.117
996.108
996.098
996.089
996.174
996.164
996.155
996.146
996.136
996.127
996.117
996.108
996.099
996.09
996.172
996.163
996.154
996.145
996.136
996.127
996.118
996.109
996.1
996.091
996.17
996.161
996.153
996.144
996.135
996.127
996.118
996.109
996.101
996.092
996.168
996.16
996.151
996.143
996.135
996.126
996.118
996.11
996.102
996.093
996.166
996.158
996.15
996.142
996.134
996.126
996.118
996.11
996.102
996.094
996.165
996.157
996.15
996.142
996.134
996.126
996.118
996.111
996.103
996.095
996.163
996.156
996.149
996.141
996.134
996.126
996.118
996.111
996.103
996.096
996.162
996.155
996.148
996.141
996.133
996.126
996.119
996.111
996.104
996.096
996.161
996.154
996.147
996.14
996.133
996.126
996.119
996.111
996.104
996.097
996.16
996.153
996.146
996.14
996.133
996.126
996.119
996.112
996.105
996.098
996.159
996.152
996.146
996.139
996.132
996.125
996.119
996.112
996.105
996.098
996.158
996.151
996.145
996.139
996.132
996.125
996.119
996.112
996.105
996.099
996.157
996.151
996.144
996.138
996.132
996.125
996.119
996.112
996.106
996.099
996.156
996.15
996.144
996.138
996.131
996.125
996.119
996.112
996.106
996.099
996.155
996.149
996.143
996.137
996.131
996.125
996.119
996.112
996.106
996.1
996.155
996.149
996.143
996.137
996.131
996.125
996.119
996.112
996.106
996.1
996.154
996.148
996.143
996.137
996.131
996.125
996.119
996.113
996.106
996.1
996.153
996.148
996.142
996.136
996.131
996.125
996.119
996.113
996.107
996.1
996.153
996.147
996.142
996.136
996.13
996.125
996.119
996.113
996.107
996.101
996.152
996.147
996.142
996.136
996.13
996.124
996.119
996.113
996.107
996.101
996.152
996.147
996.141
996.136
996.13
996.124
996.119
996.113
996.107
996.101
996.152
996.147
996.141
996.136
996.13
996.124
996.119
996.113
996.107
996.101
996.152
996.146
996.141
996.136
996.13
996.124
996.119
996.113
996.107
996.101
996.151
996.146
996.141
996.135
996.13
996.124
996.119
996.113
996.107
996.101
996.151
996.146
996.141
996.135
996.13
996.124
996.119
996.113
996.107
996.101
996.151
996.146
996.141
996.135
996.13
996.124
996.119
996.113
996.107
996.101
992.338
995.647
996.811
996.527
996.388
996.403
996.416
996.414
996.412
996.411
996.411
996.41
996.409
996.407
996.404
996.4
996.395
996.387
996.376
996.358
992.176
995.717
996.815
996.497
996.376
996.398
996.409
996.405
996.402
996.401
996.4
996.398
996.396
996.393
996.389
996.384
996.377
996.369
996.356
996.339
992.114
995.721
996.802
996.478
996.366
996.391
996.4
996.396
996.393
996.391
996.389
996.387
996.384
996.381
996.376
996.37
996.363
996.353
996.342
996.326
992.081
995.714
996.793
996.466
996.357
996.383
996.391
996.386
996.383
996.381
996.379
996.376
996.372
996.368
996.363
996.357
996.349
996.339
996.327
996.312
992.058
995.706
996.784
996.455
996.347
996.374
996.382
996.377
996.374
996.371
996.369
996.365
996.361
996.356
996.351
996.344
996.335
996.325
996.314
996.299
992.039
995.697
996.776
996.445
996.337
996.365
996.373
996.368
996.364
996.362
996.359
996.355
996.35
996.345
996.339
996.332
996.323
996.313
996.301
996.287
992.021
995.688
996.768
996.436
996.328
996.356
996.364
996.359
996.355
996.352
996.349
996.345
996.34
996.335
996.328
996.321
996.312
996.302
996.29
996.276
992.003
995.679
996.761
996.427
996.319
996.347
996.356
996.35
996.346
996.343
996.34
996.335
996.33
996.325
996.318
996.31
996.301
996.291
996.28
996.266
991.986
995.67
996.754
996.419
996.311
996.339
996.347
996.342
996.338
996.334
996.331
996.326
996.321
996.315
996.308
996.3
996.292
996.282
996.27
996.258
991.968
995.661
996.747
996.411
996.303
996.331
996.339
996.334
996.329
996.326
996.322
996.317
996.312
996.306
996.299
996.291
996.283
996.273
996.262
996.25
991.951
995.653
996.74
996.404
996.295
996.323
996.331
996.326
996.321
996.318
996.314
996.309
996.304
996.297
996.291
996.283
996.274
996.265
996.254
996.242
991.934
995.644
996.733
996.396
996.287
996.315
996.323
996.318
996.314
996.31
996.306
996.301
996.296
996.289
996.283
996.275
996.266
996.257
996.247
996.235
991.918
995.636
996.727
996.389
996.28
996.308
996.316
996.31
996.306
996.302
996.298
996.293
996.288
996.282
996.275
996.268
996.259
996.25
996.24
996.229
991.902
995.628
996.721
996.382
996.273
996.301
996.309
996.303
996.299
996.295
996.291
996.286
996.281
996.275
996.268
996.261
996.252
996.244
996.234
996.223
991.886
995.62
996.715
996.375
996.266
996.294
996.302
996.296
996.292
996.288
996.284
996.279
996.274
996.268
996.261
996.254
996.246
996.238
996.228
996.218
991.872
995.613
996.709
996.369
996.259
996.287
996.296
996.29
996.285
996.282
996.278
996.273
996.267
996.262
996.255
996.248
996.24
996.232
996.223
996.213
991.857
995.606
996.704
996.363
996.253
996.281
996.289
996.284
996.279
996.276
996.271
996.267
996.261
996.256
996.249
996.242
996.235
996.227
996.218
996.209
991.843
995.599
996.698
996.357
996.247
996.275
996.283
996.278
996.273
996.27
996.265
996.261
996.256
996.25
996.244
996.237
996.23
996.222
996.213
996.205
991.83
995.592
996.693
996.351
996.241
996.269
996.277
996.272
996.267
996.264
996.26
996.255
996.25
996.245
996.239
996.232
996.225
996.217
996.209
996.201
991.817
995.586
996.688
996.346
996.235
996.264
996.272
996.266
996.262
996.258
996.254
996.25
996.245
996.24
996.234
996.227
996.22
996.213
996.205
996.197
991.805
995.58
996.684
996.34
996.23
996.258
996.267
996.261
996.257
996.253
996.249
996.245
996.24
996.235
996.229
996.223
996.216
996.209
996.202
996.194
991.793
995.574
996.679
996.335
996.225
996.253
996.262
996.256
996.252
996.248
996.245
996.24
996.235
996.23
996.225
996.219
996.212
996.205
996.198
996.191
991.782
995.568
996.675
996.331
996.22
996.248
996.257
996.251
996.247
996.244
996.24
996.236
996.231
996.226
996.221
996.215
996.209
996.202
996.195
996.188
991.771
995.563
996.671
996.326
996.215
996.244
996.252
996.247
996.243
996.239
996.236
996.232
996.227
996.222
996.217
996.211
996.205
996.199
996.192
996.185
991.761
995.558
996.667
996.322
996.211
996.239
996.248
996.243
996.238
996.235
996.232
996.228
996.223
996.218
996.213
996.208
996.202
996.196
996.189
996.183
991.751
995.553
996.663
996.317
996.206
996.235
996.244
996.238
996.234
996.231
996.228
996.224
996.219
996.215
996.21
996.204
996.199
996.193
996.187
996.18
991.742
995.548
996.66
996.314
996.202
996.231
996.24
996.235
996.231
996.228
996.224
996.22
996.216
996.211
996.207
996.201
996.196
996.19
996.184
996.178
991.733
995.544
996.656
996.31
996.199
996.228
996.236
996.231
996.227
996.224
996.221
996.217
996.213
996.208
996.204
996.199
996.193
996.188
996.182
996.176
991.725
995.54
996.653
996.306
996.195
996.224
996.233
996.228
996.224
996.221
996.217
996.214
996.21
996.205
996.201
996.196
996.191
996.185
996.18
996.174
991.717
995.536
996.65
996.303
996.192
996.221
996.23
996.224
996.22
996.218
996.214
996.211
996.207
996.203
996.198
996.193
996.188
996.183
996.178
996.172
991.71
995.532
996.647
996.3
996.188
996.218
996.226
996.221
996.217
996.215
996.212
996.208
996.204
996.2
996.196
996.191
996.186
996.181
996.176
996.17
991.703
995.529
996.645
996.297
996.185
996.215
996.224
996.218
996.215
996.212
996.209
996.205
996.202
996.198
996.193
996.189
996.184
996.179
996.174
996.169
991.696
995.526
996.642
996.294
996.183
996.212
996.221
996.216
996.212
996.209
996.206
996.203
996.199
996.195
996.191
996.187
996.182
996.178
996.173
996.167
991.69
995.522
996.64
996.292
996.18
996.209
996.218
996.213
996.21
996.207
996.204
996.201
996.197
996.193
996.189
996.185
996.181
996.176
996.171
996.166
991.685
995.52
996.638
996.289
996.177
996.207
996.216
996.211
996.207
996.205
996.202
996.199
996.195
996.191
996.188
996.183
996.179
996.174
996.17
996.165
991.679
995.517
996.636
996.287
996.175
996.205
996.214
996.209
996.205
996.203
996.2
996.197
996.193
996.19
996.186
996.182
996.177
996.173
996.168
996.164
991.674
995.515
996.634
996.285
996.173
996.203
996.212
996.207
996.203
996.201
996.198
996.195
996.192
996.188
996.184
996.18
996.176
996.172
996.167
996.162
991.67
995.512
996.632
996.283
996.171
996.201
996.21
996.205
996.201
996.199
996.196
996.193
996.19
996.186
996.183
996.179
996.175
996.171
996.166
996.161
991.666
995.51
996.631
996.281
996.169
996.199
996.208
996.203
996.2
996.197
996.195
996.192
996.189
996.185
996.181
996.178
996.174
996.169
996.165
996.161
991.662
995.508
996.629
996.28
996.168
996.197
996.207
996.202
996.198
996.196
996.193
996.19
996.187
996.184
996.18
996.177
996.173
996.168
996.164
996.16
991.658
995.506
996.628
996.278
996.166
996.196
996.205
996.2
996.197
996.195
996.192
996.189
996.186
996.183
996.179
996.175
996.172
996.168
996.163
996.159
991.655
995.505
996.627
996.277
996.165
996.195
996.204
996.199
996.196
996.194
996.191
996.188
996.185
996.182
996.178
996.175
996.171
996.167
996.163
996.158
991.652
995.503
996.626
996.276
996.164
996.194
996.203
996.198
996.195
996.193
996.19
996.187
996.184
996.181
996.177
996.174
996.17
996.166
996.162
996.158
991.649
995.502
996.625
996.275
996.163
996.193
996.202
996.197
996.194
996.192
996.189
996.186
996.183
996.18
996.177
996.173
996.169
996.165
996.161
996.157
991.647
995.5
996.624
996.274
996.162
996.192
996.201
996.196
996.193
996.191
996.188
996.186
996.183
996.179
996.176
996.172
996.169
996.165
996.161
996.157
991.645
995.499
996.623
996.274
996.162
996.191
996.201
996.196
996.192
996.19
996.188
996.185
996.182
996.179
996.176
996.172
996.168
996.165
996.161
996.156
991.647
995.497
996.623
996.274
996.161
996.191
996.2
996.195
996.192
996.19
996.187
996.185
996.182
996.178
996.175
996.172
996.168
996.164
996.16
996.156
991.653
995.494
996.624
996.275
996.161
996.19
996.2
996.195
996.192
996.189
996.187
996.184
996.181
996.178
996.175
996.171
996.168
996.164
996.16
996.156
991.684
995.476
996.622
996.28
996.161
996.189
996.199
996.195
996.191
996.189
996.187
996.184
996.181
996.178
996.175
996.171
996.168
996.164
996.16
996.156
991.789
995.407
996.609
996.291
996.162
996.187
996.199
996.195
996.191
996.189
996.187
996.184
996.181
996.178
996.174
996.171
996.167
996.164
996.16
996.156
995.8
995.763
995.73
995.7
995.668
995.635
995.599
995.56
995.522
995.452
995.804
995.768
995.733
995.704
995.673
995.641
995.607
995.571
995.535
995.473
995.798
995.767
995.736
995.709
995.68
995.65
995.618
995.584
995.55
995.497
995.791
995.764
995.736
995.711
995.684
995.656
995.626
995.596
995.565
995.521
995.785
995.762
995.737
995.713
995.688
995.662
995.634
995.606
995.579
995.544
995.78
995.76
995.737
995.716
995.692
995.668
995.642
995.616
995.592
995.565
995.776
995.759
995.738
995.718
995.696
995.673
995.649
995.625
995.603
995.583
995.774
995.758
995.74
995.72
995.699
995.677
995.654
995.631
995.612
995.598
995.773
995.758
995.741
995.723
995.702
995.68
995.658
995.636
995.618
995.608
995.774
995.759
995.742
995.724
995.704
995.682
995.66
995.639
995.621
995.612
995.784
995.793
995.802
995.811
995.82
995.829
995.837
995.846
995.854
995.862
995.869
995.877
995.884
995.89
995.897
995.903
995.909
995.915
995.921
995.926
995.931
995.936
995.941
995.945
995.95
995.954
995.958
995.962
995.965
995.969
995.972
995.976
995.979
995.982
995.985
995.988
995.991
995.994
995.997
995.999
996.002
996.005
996.008
996.011
996.014
996.017
996.02
996.023
996.027
996.03
995.78
995.789
995.799
995.808
995.818
995.827
995.835
995.844
995.852
995.86
995.868
995.875
995.882
995.889
995.896
995.902
995.908
995.914
995.92
995.925
995.93
995.935
995.94
995.945
995.949
995.953
995.957
995.961
995.965
995.969
995.972
995.975
995.979
995.982
995.985
995.988
995.991
995.993
995.996
995.999
996.002
996.004
996.007
996.01
996.013
996.016
996.019
996.023
996.026
996.03
995.776
995.784
995.795
995.805
995.815
995.824
995.833
995.842
995.85
995.858
995.866
995.873
995.881
995.888
995.895
995.901
995.907
995.913
995.919
995.924
995.93
995.935
995.939
995.944
995.948
995.953
995.957
995.961
995.964
995.968
995.971
995.975
995.978
995.981
995.984
995.987
995.99
995.993
995.996
995.998
996.001
996.004
996.007
996.009
996.012
996.015
996.018
996.021
996.025
996.028
995.77
995.779
995.791
995.802
995.812
995.821
995.83
995.839
995.848
995.856
995.864
995.872
995.879
995.886
995.893
995.9
995.906
995.912
995.918
995.923
995.929
995.934
995.939
995.943
995.948
995.952
995.956
995.96
995.964
995.967
995.971
995.974
995.977
995.981
995.984
995.987
995.989
995.992
995.995
995.998
996
996.003
996.006
996.008
996.011
996.014
996.017
996.019
996.023
996.026
995.765
995.772
995.786
995.798
995.808
995.818
995.828
995.837
995.846
995.854
995.862
995.87
995.878
995.885
995.892
995.899
995.905
995.911
995.917
995.922
995.928
995.933
995.938
995.942
995.947
995.951
995.955
995.959
995.963
995.967
995.97
995.973
995.977
995.98
995.983
995.986
995.989
995.991
995.994
995.997
995.999
996.002
996.004
996.007
996.009
996.012
996.014
996.017
996.02
996.022
995.76
995.766
995.782
995.794
995.805
995.816
995.825
995.835
995.844
995.853
995.861
995.869
995.877
995.884
995.891
995.898
995.904
995.91
995.916
995.921
995.927
995.932
995.937
995.942
995.946
995.95
995.954
995.958
995.962
995.966
995.969
995.973
995.976
995.979
995.982
995.985
995.988
995.99
995.993
995.995
995.998
996
996.003
996.005
996.007
996.01
996.012
996.014
996.017
996.019
995.755
995.761
995.778
995.792
995.803
995.814
995.824
995.834
995.843
995.852
995.86
995.868
995.876
995.883
995.89
995.897
995.903
995.909
995.915
995.921
995.926
995.931
995.936
995.941
995.945
995.95
995.954
995.958
995.961
995.965
995.968
995.972
995.975
995.978
995.981
995.984
995.986
995.989
995.992
995.994
995.996
995.999
996.001
996.003
996.005
996.007
996.009
996.011
996.013
996.015
995.753
995.757
995.776
995.791
995.802
995.813
995.823
995.833
995.842
995.851
995.859
995.867
995.875
995.882
995.889
995.896
995.902
995.908
995.914
995.92
995.925
995.93
995.935
995.94
995.944
995.949
995.953
995.957
995.96
995.964
995.967
995.971
995.974
995.977
995.98
995.982
995.985
995.988
995.99
995.992
995.995
995.997
995.999
996.001
996.002
996.004
996.006
996.007
996.009
996.01
995.751
995.756
995.777
995.792
995.803
995.814
995.824
995.834
995.843
995.851
995.86
995.868
995.875
995.882
995.889
995.896
995.902
995.908
995.914
995.919
995.925
995.93
995.934
995.939
995.943
995.948
995.952
995.956
995.959
995.963
995.966
995.969
995.973
995.975
995.978
995.981
995.984
995.986
995.988
995.99
995.993
995.994
995.996
995.998
996
996.001
996.002
996.003
996.004
996.005
995.752
995.764
995.784
995.797
995.808
995.819
995.828
995.837
995.846
995.854
995.862
995.869
995.876
995.883
995.89
995.896
995.902
995.908
995.914
995.919
995.924
995.929
995.934
995.938
995.943
995.947
995.951
995.955
995.958
995.962
995.965
995.968
995.971
995.974
995.977
995.979
995.982
995.984
995.986
995.988
995.99
995.992
995.994
995.995
995.996
995.998
995.999
995.999
996
996
995.806
995.801
995.801
995.808
995.816
995.825
995.833
995.841
995.849
995.857
995.864
995.872
995.879
995.885
995.892
995.898
995.904
995.909
995.915
995.92
995.925
995.93
995.935
995.939
995.943
995.947
995.951
995.955
995.958
995.962
995.965
995.968
995.971
995.974
995.976
995.979
995.981
995.983
995.985
995.987
995.989
995.99
995.992
995.993
995.994
995.995
995.995
995.996
995.996
995.996
995.821
995.818
995.816
995.82
995.827
995.834
995.841
995.848
995.855
995.862
995.869
995.876
995.882
995.888
995.894
995.9
995.906
995.911
995.917
995.922
995.926
995.931
995.935
995.94
995.944
995.948
995.951
995.955
995.958
995.962
995.965
995.968
995.97
995.973
995.975
995.978
995.98
995.982
995.984
995.986
995.987
995.989
995.99
995.991
995.992
995.992
995.993
995.993
995.993
995.993
995.829
995.829
995.828
995.832
995.837
995.843
995.849
995.855
995.862
995.868
995.874
995.88
995.886
995.892
995.898
995.903
995.908
995.914
995.919
995.923
995.928
995.932
995.936
995.941
995.944
995.948
995.952
995.955
995.958
995.961
995.964
995.967
995.97
995.972
995.975
995.977
995.979
995.981
995.983
995.984
995.986
995.987
995.988
995.989
995.989
995.99
995.99
995.99
995.99
995.989
995.838
995.84
995.84
995.843
995.847
995.852
995.857
995.863
995.868
995.874
995.88
995.885
995.891
995.896
995.901
995.906
995.911
995.916
995.921
995.925
995.929
995.934
995.938
995.941
995.945
995.949
995.952
995.955
995.958
995.961
995.964
995.967
995.969
995.972
995.974
995.976
995.978
995.98
995.981
995.983
995.984
995.985
995.986
995.987
995.987
995.987
995.987
995.987
995.987
995.986
995.848
995.85
995.85
995.853
995.857
995.861
995.865
995.87
995.875
995.88
995.885
995.89
995.895
995.9
995.905
995.909
995.914
995.919
995.923
995.927
995.931
995.935
995.939
995.942
995.946
995.949
995.953
995.956
995.959
995.961
995.964
995.966
995.969
995.971
995.973
995.975
995.977
995.978
995.98
995.981
995.982
995.983
995.984
995.985
995.985
995.985
995.985
995.984
995.984
995.982
995.858
995.86
995.861
995.863
995.866
995.87
995.873
995.877
995.882
995.886
995.891
995.895
995.9
995.904
995.909
995.913
995.917
995.921
995.925
995.929
995.933
995.937
995.94
995.944
995.947
995.95
995.953
995.956
995.959
995.961
995.964
995.966
995.968
995.97
995.972
995.974
995.976
995.977
995.979
995.98
995.981
995.982
995.982
995.983
995.983
995.983
995.982
995.982
995.981
995.979
995.869
995.87
995.871
995.873
995.875
995.878
995.881
995.885
995.889
995.892
995.896
995.9
995.904
995.908
995.912
995.916
995.92
995.924
995.928
995.931
995.935
995.938
995.942
995.945
995.948
995.951
995.954
995.956
995.959
995.961
995.964
995.966
995.968
995.97
995.972
995.973
995.975
995.976
995.977
995.978
995.979
995.98
995.98
995.981
995.981
995.98
995.98
995.979
995.978
995.977
995.879
995.88
995.881
995.882
995.884
995.887
995.889
995.892
995.895
995.899
995.902
995.906
995.909
995.913
995.916
995.92
995.923
995.927
995.93
995.934
995.937
995.94
995.943
995.946
995.949
995.952
995.954
995.957
995.959
995.962
995.964
995.966
995.968
995.969
995.971
995.973
995.974
995.975
995.976
995.977
995.978
995.978
995.979
995.979
995.979
995.978
995.978
995.977
995.975
995.974
995.89
995.89
995.891
995.892
995.893
995.895
995.897
995.9
995.902
995.905
995.908
995.911
995.914
995.917
995.92
995.924
995.927
995.93
995.933
995.936
995.939
995.942
995.945
995.947
995.95
995.953
995.955
995.957
995.96
995.962
995.964
995.966
995.967
995.969
995.971
995.972
995.973
995.974
995.975
995.976
995.976
995.977
995.977
995.977
995.977
995.976
995.976
995.975
995.973
995.971
995.9
995.9
995.9
995.901
995.902
995.903
995.905
995.907
995.909
995.911
995.914
995.916
995.919
995.922
995.925
995.927
995.93
995.933
995.936
995.938
995.941
995.944
995.946
995.949
995.951
995.954
995.956
995.958
995.96
995.962
995.964
995.966
995.967
995.969
995.97
995.971
995.972
995.973
995.974
995.975
995.975
995.975
995.976
995.975
995.975
995.975
995.974
995.973
995.971
995.969
995.91
995.909
995.909
995.91
995.91
995.911
995.912
995.914
995.915
995.917
995.919
995.922
995.924
995.926
995.929
995.931
995.934
995.936
995.939
995.941
995.943
995.946
995.948
995.95
995.953
995.955
995.957
995.959
995.961
995.962
995.964
995.966
995.967
995.968
995.97
995.971
995.972
995.973
995.973
995.974
995.974
995.974
995.974
995.974
995.974
995.973
995.972
995.971
995.969
995.967
995.92
995.918
995.918
995.918
995.918
995.919
995.92
995.921
995.922
995.923
995.925
995.927
995.929
995.931
995.933
995.935
995.937
995.939
995.941
995.944
995.946
995.948
995.95
995.952
995.954
995.956
995.958
995.959
995.961
995.963
995.964
995.966
995.967
995.968
995.969
995.97
995.971
995.972
995.972
995.973
995.973
995.973
995.973
995.973
995.972
995.971
995.971
995.969
995.968
995.966
995.929
995.927
995.927
995.926
995.926
995.926
995.927
995.927
995.928
995.929
995.93
995.932
995.933
995.935
995.937
995.939
995.94
995.942
995.944
995.946
995.948
995.95
995.952
995.954
995.955
995.957
995.959
995.96
995.962
995.963
995.965
995.966
995.967
995.968
995.969
995.97
995.971
995.971
995.972
995.972
995.972
995.972
995.972
995.972
995.971
995.97
995.969
995.968
995.966
995.965
995.938
995.935
995.935
995.934
995.933
995.933
995.933
995.934
995.934
995.935
995.936
995.937
995.938
995.939
995.941
995.942
995.944
995.945
995.947
995.949
995.95
995.952
995.954
995.955
995.957
995.958
995.96
995.961
995.963
995.964
995.965
995.966
995.967
995.968
995.969
995.97
995.97
995.971
995.971
995.971
995.971
995.971
995.971
995.971
995.97
995.969
995.968
995.967
995.965
995.964
995.946
995.943
995.943
995.941
995.941
995.94
995.94
995.94
995.94
995.94
995.941
995.942
995.943
995.944
995.945
995.946
995.947
995.949
995.95
995.951
995.953
995.954
995.956
995.957
995.958
995.96
995.961
995.962
995.963
995.964
995.965
995.966
995.967
995.968
995.969
995.969
995.97
995.97
995.971
995.971
995.971
995.971
995.97
995.97
995.969
995.968
995.967
995.966
995.965
995.963
995.954
995.951
995.95
995.949
995.947
995.946
995.946
995.946
995.945
995.946
995.946
995.946
995.947
995.948
995.949
995.949
995.951
995.952
995.953
995.954
995.955
995.956
995.957
995.959
995.96
995.961
995.962
995.963
995.964
995.965
995.966
995.967
995.968
995.968
995.969
995.969
995.97
995.97
995.97
995.97
995.97
995.97
995.97
995.969
995.968
995.968
995.967
995.965
995.964
995.962
995.962
995.958
995.957
995.955
995.954
995.953
995.952
995.951
995.951
995.951
995.951
995.951
995.951
995.952
995.952
995.953
995.954
995.955
995.955
995.956
995.957
995.958
995.959
995.96
995.961
995.962
995.963
995.964
995.965
995.966
995.967
995.967
995.968
995.968
995.969
995.969
995.97
995.97
995.97
995.97
995.97
995.97
995.969
995.969
995.968
995.967
995.966
995.965
995.963
995.962
995.968
995.965
995.963
995.961
995.96
995.958
995.957
995.957
995.956
995.955
995.955
995.955
995.955
995.956
995.956
995.956
995.957
995.957
995.958
995.959
995.96
995.96
995.961
995.962
995.963
995.964
995.964
995.965
995.966
995.967
995.967
995.968
995.968
995.969
995.969
995.969
995.97
995.97
995.97
995.97
995.97
995.969
995.969
995.968
995.968
995.967
995.966
995.965
995.963
995.962
995.975
995.971
995.969
995.967
995.965
995.964
995.963
995.962
995.961
995.96
995.96
995.959
995.959
995.959
995.959
995.96
995.96
995.96
995.961
995.961
995.962
995.962
995.963
995.964
995.964
995.965
995.966
995.966
995.967
995.967
995.968
995.968
995.969
995.969
995.969
995.97
995.97
995.97
995.97
995.97
995.969
995.969
995.969
995.968
995.967
995.967
995.966
995.964
995.963
995.962
995.981
995.977
995.975
995.973
995.971
995.969
995.968
995.966
995.965
995.965
995.964
995.963
995.963
995.963
995.963
995.963
995.963
995.963
995.963
995.964
995.964
995.965
995.965
995.965
995.966
995.966
995.967
995.967
995.968
995.968
995.969
995.969
995.969
995.97
995.97
995.97
995.97
995.97
995.97
995.97
995.969
995.969
995.968
995.968
995.967
995.966
995.966
995.964
995.963
995.962
995.986
995.983
995.98
995.978
995.976
995.974
995.972
995.971
995.97
995.969
995.968
995.967
995.967
995.966
995.966
995.966
995.966
995.966
995.966
995.966
995.966
995.967
995.967
995.967
995.967
995.968
995.968
995.968
995.969
995.969
995.969
995.97
995.97
995.97
995.97
995.97
995.97
995.97
995.97
995.97
995.969
995.969
995.968
995.968
995.967
995.966
995.966
995.965
995.963
995.962
995.991
995.988
995.985
995.983
995.981
995.979
995.977
995.975
995.974
995.973
995.972
995.971
995.97
995.97
995.969
995.969
995.969
995.968
995.968
995.968
995.968
995.968
995.969
995.969
995.969
995.969
995.969
995.97
995.97
995.97
995.97
995.97
995.97
995.97
995.971
995.97
995.97
995.97
995.97
995.97
995.969
995.969
995.969
995.968
995.967
995.967
995.966
995.965
995.964
995.963
995.996
995.993
995.99
995.987
995.985
995.983
995.981
995.979
995.978
995.976
995.975
995.974
995.973
995.973
995.972
995.972
995.971
995.971
995.971
995.97
995.97
995.97
995.97
995.97
995.97
995.971
995.971
995.971
995.971
995.971
995.971
995.971
995.971
995.971
995.971
995.971
995.971
995.971
995.97
995.97
995.97
995.969
995.969
995.968
995.968
995.967
995.966
995.965
995.964
995.963
996.001
995.997
995.994
995.992
995.989
995.987
995.985
995.983
995.981
995.98
995.979
995.978
995.977
995.976
995.975
995.974
995.974
995.973
995.973
995.973
995.972
995.972
995.972
995.972
995.972
995.972
995.972
995.972
995.972
995.972
995.972
995.972
995.972
995.972
995.971
995.971
995.971
995.971
995.971
995.97
995.97
995.969
995.969
995.968
995.968
995.967
995.966
995.966
995.965
995.964
996.005
996.001
995.998
995.996
995.993
995.991
995.989
995.987
995.985
995.983
995.982
995.981
995.979
995.978
995.978
995.977
995.976
995.976