/*--------------------------------*- C++ -*----------------------------------*\
  =========                 |
  \\      /  F ield         | OpenFOAM: The Open Source CFD Toolbox
   \\    /   O peration     | Website:  https://openfoam.org
    \\  /    A nd           | Version:  6
     \\/     M anipulation  |
\*---------------------------------------------------------------------------*/
FoamFile
{
    version     2.0;
    format      ascii;
    class       volScalarField;
    location    "0.85";
    object      p;
}
// * * * * * * * * * * * * * * * * * * * * * * * * * * * * * * * * * * * * * //

dimensions      [0 2 -2 0 0 0 0];

internalField   nonuniform List<scalar> 
5600
(
996.57
997.446
998.176
998.198
998.119
998.108
998.12
998.128
998.134
998.14
998.147
998.155
998.163
998.173
998.183
998.195
998.208
998.222
998.238
998.256
996.528
997.463
998.19
998.197
998.117
998.107
998.12
998.128
998.133
998.139
998.146
998.154
998.162
998.172
998.182
998.194
998.207
998.221
998.237
998.254
996.504
997.467
998.195
998.196
998.115
998.106
998.118
998.126
998.131
998.137
998.143
998.151
998.159
998.168
998.178
998.19
998.202
998.215
998.23
998.246
996.477
997.467
998.199
998.195
998.112
998.103
998.116
998.123
998.127
998.132
998.139
998.146
998.154
998.162
998.171
998.182
998.193
998.205
998.218
998.232
996.445
997.466
998.202
998.192
998.108
998.1
998.112
998.118
998.122
998.127
998.132
998.139
998.146
998.153
998.162
998.171
998.18
998.191
998.202
998.213
996.407
997.465
998.206
998.19
998.103
998.095
998.106
998.112
998.115
998.119
998.124
998.13
998.136
998.142
998.149
998.157
998.164
998.172
998.181
998.189
996.366
997.465
998.21
998.186
998.097
998.089
998.1
998.105
998.107
998.111
998.115
998.119
998.124
998.129
998.134
998.14
998.145
998.151
998.156
998.16
996.322
997.466
998.216
998.181
998.09
998.082
998.093
998.097
998.098
998.1
998.103
998.107
998.11
998.114
998.118
998.121
998.124
998.127
998.128
998.129
996.269
997.474
998.223
998.174
998.081
998.074
998.085
998.087
998.088
998.089
998.091
998.094
998.096
998.098
998.1
998.101
998.102
998.101
998.099
998.095
996.168
997.507
998.235
998.159
998.069
998.066
998.075
998.077
998.077
998.077
998.079
998.08
998.081
998.081
998.081
998.081
998.079
998.075
998.07
998.062
998.278
998.308
998.342
998.381
998.427
998.478
998.536
998.6
998.67
998.839
998.275
998.304
998.337
998.376
998.419
998.469
998.525
998.586
998.652
998.821
998.265
998.293
998.325
998.362
998.403
998.45
998.502
998.559
998.62
998.784
998.248
998.273
998.304
998.338
998.376
998.419
998.466
998.517
998.573
998.728
998.224
998.246
998.274
998.305
998.339
998.377
998.418
998.462
998.51
998.654
998.195
998.213
998.238
998.265
998.294
998.326
998.361
998.396
998.435
998.565
998.16
998.175
998.197
998.219
998.243
998.269
998.295
998.322
998.35
998.463
998.122
998.133
998.151
998.169
998.188
998.206
998.224
998.241
998.258
998.351
998.081
998.089
998.104
998.117
998.129
998.141
998.151
998.158
998.165
998.234
998.039
998.045
998.056
998.064
998.07
998.075
998.075
998.072
998.065
998.111
998.004
998.012
998.016
998.017
998.015
998.006
997.989
997.964
997.936
997.97
997.965
997.969
997.967
997.962
997.952
997.934
997.906
997.87
997.831
997.844
997.923
997.923
997.915
997.904
997.886
997.86
997.825
997.781
997.735
997.726
997.88
997.874
997.861
997.844
997.82
997.787
997.744
997.693
997.642
997.613
997.835
997.824
997.807
997.784
997.754
997.715
997.666
997.61
997.553
997.507
997.79
997.775
997.753
997.726
997.691
997.647
997.593
997.533
997.473
997.411
997.746
997.727
997.702
997.671
997.632
997.584
997.527
997.465
997.403
997.327
997.704
997.682
997.654
997.619
997.578
997.528
997.47
997.406
997.343
997.255
997.665
997.64
997.61
997.574
997.531
997.48
997.422
997.358
997.295
997.196
997.63
997.603
997.572
997.535
997.491
997.44
997.382
997.319
997.255
997.148
997.999
997.959
997.918
997.877
997.835
997.793
997.753
997.715
997.679
997.647
997.986
997.948
997.909
997.871
997.833
997.794
997.757
997.722
997.69
997.66
997.97
997.934
997.898
997.863
997.828
997.794
997.76
997.728
997.699
997.671
997.956
997.922
997.889
997.857
997.825
997.793
997.763
997.734
997.707
997.681
997.943
997.912
997.881
997.852
997.822
997.793
997.766
997.739
997.714
997.69
997.931
997.902
997.874
997.847
997.82
997.794
997.768
997.743
997.72
997.698
997.921
997.894
997.868
997.843
997.818
997.794
997.77
997.747
997.726
997.705
997.912
997.887
997.863
997.839
997.816
997.794
997.772
997.751
997.73
997.711
997.903
997.88
997.858
997.836
997.815
997.794
997.773
997.754
997.735
997.716
997.896
997.874
997.854
997.834
997.814
997.794
997.775
997.756
997.739
997.721
997.889
997.869
997.85
997.831
997.812
997.794
997.776
997.759
997.742
997.726
997.883
997.864
997.846
997.829
997.811
997.794
997.777
997.761
997.745
997.73
997.878
997.86
997.843
997.827
997.81
997.794
997.779
997.763
997.748
997.734
997.873
997.856
997.84
997.825
997.81
997.794
997.779
997.765
997.751
997.737
997.868
997.853
997.838
997.823
997.809
997.794
997.78
997.767
997.753
997.74
997.864
997.849
997.835
997.822
997.808
997.794
997.781
997.768
997.755
997.743
997.86
997.846
997.833
997.82
997.807
997.794
997.782
997.769
997.757
997.745
997.856
997.844
997.831
997.819
997.807
997.794
997.782
997.771
997.759
997.748
997.853
997.841
997.829
997.818
997.806
997.794
997.783
997.772
997.761
997.75
997.85
997.839
997.828
997.817
997.805
997.794
997.783
997.773
997.762
997.752
997.847
997.837
997.826
997.815
997.805
997.794
997.784
997.774
997.763
997.753
997.845
997.835
997.825
997.814
997.804
997.794
997.784
997.774
997.765
997.755
997.843
997.833
997.823
997.813
997.804
997.794
997.785
997.775
997.766
997.756
997.84
997.831
997.822
997.813
997.803
997.794
997.785
997.776
997.767
997.758
997.838
997.829
997.821
997.812
997.803
997.794
997.785
997.776
997.768
997.759
997.836
997.828
997.819
997.811
997.802
997.794
997.785
997.777
997.768
997.76
997.835
997.826
997.818
997.81
997.802
997.794
997.785
997.777
997.769
997.761
997.833
997.825
997.817
997.809
997.801
997.794
997.786
997.778
997.77
997.762
997.831
997.824
997.816
997.809
997.801
997.793
997.786
997.778
997.77
997.763
997.83
997.823
997.816
997.808
997.801
997.793
997.786
997.778
997.771
997.764
997.829
997.822
997.815
997.808
997.8
997.793
997.786
997.779
997.771
997.764
997.827
997.821
997.814
997.807
997.8
997.793
997.786
997.779
997.772
997.765
997.826
997.82
997.813
997.806
997.8
997.793
997.786
997.779
997.772
997.765
997.825
997.819
997.812
997.806
997.799
997.793
997.786
997.779
997.773
997.766
997.824
997.818
997.812
997.805
997.799
997.793
997.786
997.779
997.773
997.766
997.823
997.817
997.811
997.805
997.799
997.792
997.786
997.78
997.773
997.767
997.822
997.817
997.811
997.805
997.798
997.792
997.786
997.78
997.773
997.767
997.822
997.816
997.81
997.804
997.798
997.792
997.786
997.78
997.774
997.768
997.821
997.815
997.81
997.804
997.798
997.792
997.786
997.78
997.774
997.768
997.82
997.815
997.809
997.804
997.798
997.792
997.786
997.78
997.774
997.768
997.82
997.814
997.809
997.803
997.798
997.792
997.786
997.78
997.774
997.768
997.819
997.814
997.809
997.803
997.797
997.792
997.786
997.78
997.774
997.769
997.819
997.814
997.808
997.803
997.797
997.792
997.786
997.78
997.775
997.769
997.818
997.813
997.808
997.803
997.797
997.792
997.786
997.78
997.775
997.769
997.818
997.813
997.808
997.802
997.797
997.791
997.786
997.78
997.775
997.769
997.818
997.813
997.808
997.802
997.797
997.791
997.786
997.78
997.775
997.769
997.817
997.812
997.807
997.802
997.797
997.791
997.786
997.78
997.775
997.769
997.817
997.812
997.807
997.802
997.797
997.791
997.786
997.78
997.775
997.769
997.817
997.812
997.807
997.802
997.797
997.791
997.786
997.78
997.775
997.769
997.817
997.812
997.807
997.802
997.797
997.791
997.786
997.78
997.775
997.769
995.959
997.613
998.264
998.128
998.052
998.058
998.065
998.065
998.063
998.063
998.063
998.062
998.061
998.059
998.057
998.053
998.048
998.041
998.03
998.014
995.864
997.648
998.264
998.108
998.042
998.052
998.058
998.056
998.054
998.053
998.052
998.051
998.049
998.046
998.043
998.038
998.032
998.023
998.012
997.996
995.824
997.646
998.256
998.095
998.033
998.045
998.049
998.047
998.045
998.044
998.042
998.04
998.038
998.034
998.03
998.025
998.018
998.009
997.998
997.983
995.798
997.639
998.248
998.085
998.024
998.037
998.041
998.038
998.036
998.034
998.032
998.03
998.027
998.023
998.018
998.012
998.004
997.995
997.984
997.97
995.778
997.63
998.241
998.076
998.016
998.028
998.033
998.03
998.027
998.025
998.023
998.02
998.016
998.012
998.006
998
997.992
997.983
997.971
997.957
995.76
997.622
998.235
998.068
998.007
998.02
998.024
998.021
998.018
998.016
998.013
998.01
998.006
998.001
997.995
997.988
997.98
997.971
997.96
997.946
995.743
997.613
998.228
998.06
997.999
998.012
998.016
998.013
998.01
998.007
998.004
998
997.996
997.991
997.985
997.978
997.97
997.96
997.949
997.936
995.726
997.604
998.221
998.052
997.991
998.004
998.008
998.005
998.001
997.999
997.995
997.991
997.987
997.981
997.975
997.968
997.96
997.95
997.939
997.927
995.71
997.596
998.214
998.045
997.983
997.997
998
997.997
997.993
997.99
997.987
997.983
997.978
997.972
997.966
997.959
997.95
997.941
997.93
997.918
995.694
997.587
998.208
998.037
997.976
997.989
997.993
997.989
997.985
997.982
997.979
997.974
997.969
997.964
997.957
997.95
997.942
997.933
997.922
997.911
995.679
997.579
998.202
998.03
997.969
997.982
997.985
997.981
997.978
997.975
997.971
997.966
997.961
997.956
997.949
997.942
997.934
997.925
997.915
997.903
995.664
997.571
998.196
998.024
997.961
997.975
997.978
997.974
997.971
997.967
997.963
997.959
997.954
997.948
997.942
997.934
997.926
997.918
997.908
997.897
995.649
997.563
998.19
998.017
997.955
997.968
997.971
997.967
997.964
997.96
997.956
997.952
997.947
997.941
997.935
997.927
997.92
997.911
997.901
997.891
995.635
997.555
998.184
998.011
997.948
997.961
997.965
997.961
997.957
997.953
997.949
997.945
997.94
997.934
997.928
997.921
997.913
997.905
997.896
997.886
995.621
997.548
998.178
998.004
997.942
997.955
997.958
997.954
997.95
997.947
997.943
997.938
997.933
997.928
997.922
997.915
997.907
997.899
997.89
997.881
995.607
997.541
998.173
997.998
997.935
997.949
997.952
997.948
997.944
997.941
997.937
997.932
997.927
997.922
997.916
997.909
997.902
997.894
997.885
997.876
995.594
997.534
998.168
997.993
997.929
997.943
997.946
997.942
997.938
997.935
997.931
997.926
997.921
997.916
997.91
997.904
997.896
997.889
997.881
997.872
995.582
997.527
998.163
997.987
997.924
997.937
997.941
997.936
997.933
997.929
997.925
997.921
997.916
997.911
997.905
997.898
997.892
997.884
997.876
997.868
995.57
997.521
998.158
997.982
997.918
997.932
997.935
997.931
997.927
997.924
997.92
997.916
997.911
997.906
997.9
997.894
997.887
997.88
997.872
997.864
995.558
997.514
998.153
997.977
997.913
997.926
997.93
997.926
997.922
997.919
997.915
997.911
997.906
997.901
997.895
997.889
997.883
997.876
997.869
997.861
995.547
997.508
998.149
997.972
997.908
997.921
997.925
997.921
997.917
997.914
997.91
997.906
997.901
997.896
997.891
997.885
997.879
997.872
997.865
997.858
995.537
997.503
998.144
997.967
997.903
997.917
997.92
997.916
997.913
997.909
997.906
997.902
997.897
997.892
997.887
997.881
997.875
997.869
997.862
997.855
995.526
997.497
998.14
997.963
997.899
997.912
997.916
997.912
997.908
997.905
997.901
997.897
997.893
997.888
997.883
997.878
997.872
997.865
997.859
997.852
995.517
997.492
998.137
997.958
997.894
997.908
997.912
997.908
997.904
997.901
997.897
997.893
997.889
997.884
997.879
997.874
997.868
997.862
997.856
997.849
995.508
997.487
998.133
997.954
997.89
997.904
997.908
997.904
997.9
997.897
997.894
997.89
997.885
997.881
997.876
997.871
997.865
997.859
997.853
997.847
995.499
997.483
998.129
997.95
997.886
997.9
997.904
997.9
997.896
997.893
997.89
997.886
997.882
997.878
997.873
997.868
997.862
997.857
997.851
997.845
995.49
997.478
998.126
997.947
997.882
997.896
997.9
997.896
997.893
997.89
997.886
997.883
997.879
997.874
997.87
997.865
997.86
997.854
997.848
997.843
995.483
997.474
998.123
997.943
997.879
997.893
997.897
997.893
997.889
997.887
997.883
997.88
997.876
997.871
997.867
997.862
997.857
997.852
997.846
997.841
995.475
997.47
998.12
997.94
997.875
997.889
997.893
997.89
997.886
997.883
997.88
997.877
997.873
997.869
997.864
997.86
997.855
997.85
997.844
997.839
995.468
997.466
998.117
997.937
997.872
997.886
997.89
997.887
997.883
997.88
997.877
997.874
997.87
997.866
997.862
997.857
997.853
997.848
997.842
997.837
995.461
997.463
998.114
997.934
997.869
997.883
997.887
997.884
997.88
997.878
997.875
997.871
997.868
997.864
997.86
997.855
997.851
997.846
997.841
997.835
995.455
997.459
998.112
997.931
997.866
997.881
997.885
997.881
997.878
997.875
997.872
997.869
997.865
997.861
997.857
997.853
997.849
997.844
997.839
997.834
995.449
997.456
998.109
997.929
997.864
997.878
997.882
997.878
997.875
997.873
997.87
997.867
997.863
997.859
997.855
997.851
997.847
997.842
997.837
997.832
995.444
997.453
998.107
997.926
997.861
997.876
997.88
997.876
997.873
997.87
997.868
997.864
997.861
997.857
997.854
997.849
997.845
997.841
997.836
997.831
995.438
997.451
998.105
997.924
997.859
997.873
997.877
997.874
997.871
997.868
997.866
997.862
997.859
997.856
997.852
997.848
997.844
997.839
997.835
997.83
995.434
997.448
998.103
997.922
997.857
997.871
997.875
997.872
997.869
997.866
997.864
997.861
997.857
997.854
997.85
997.846
997.842
997.838
997.833
997.829
995.429
997.446
998.102
997.92
997.855
997.869
997.874
997.87
997.867
997.865
997.862
997.859
997.856
997.852
997.849
997.845
997.841
997.837
997.832
997.828
995.425
997.443
998.1
997.918
997.853
997.867
997.872
997.868
997.865
997.863
997.86
997.857
997.854
997.851
997.847
997.844
997.84
997.836
997.831
997.827
995.421
997.441
998.098
997.916
997.851
997.866
997.87
997.867
997.864
997.861
997.859
997.856
997.853
997.85
997.846
997.842
997.839
997.835
997.83
997.826
995.418
997.44
998.097
997.915
997.85
997.864
997.869
997.865
997.862
997.86
997.858
997.855
997.852
997.848
997.845
997.841
997.838
997.834
997.829
997.825
995.415
997.438
998.096
997.914
997.848
997.863
997.867
997.864
997.861
997.859
997.856
997.853
997.85
997.847
997.844
997.84
997.837
997.833
997.829
997.825
995.412
997.436
998.095
997.912
997.847
997.862
997.866
997.863
997.86
997.858
997.855
997.852
997.849
997.846
997.843
997.84
997.836
997.832
997.828
997.824
995.409
997.435
998.094
997.911
997.846
997.861
997.865
997.862
997.859
997.857
997.854
997.852
997.849
997.845
997.842
997.839
997.835
997.831
997.827
997.823
995.407
997.434
998.093
997.91
997.845
997.86
997.864
997.861
997.858
997.856
997.853
997.851
997.848
997.845
997.842
997.838
997.835
997.831
997.827
997.823
995.405
997.433
998.092
997.91
997.845
997.859
997.864
997.86
997.857
997.855
997.853
997.85
997.847
997.844
997.841
997.838
997.834
997.83
997.826
997.822
995.404
997.431
998.091
997.909
997.844
997.858
997.863
997.86
997.857
997.855
997.852
997.85
997.847
997.844
997.84
997.837
997.834
997.83
997.826
997.822
995.405
997.43
998.091
997.909
997.844
997.858
997.862
997.859
997.856
997.854
997.852
997.849
997.846
997.843
997.84
997.837
997.833
997.83
997.826
997.822
995.408
997.428
998.091
997.91
997.843
997.857
997.862
997.859
997.856
997.854
997.851
997.849
997.846
997.843
997.84
997.836
997.833
997.829
997.826
997.822
995.424
997.418
998.09
997.912
997.843
997.857
997.862
997.859
997.856
997.854
997.851
997.849
997.846
997.843
997.84
997.836
997.833
997.829
997.825
997.822
995.485
997.377
998.082
997.919
997.844
997.856
997.862
997.859
997.856
997.853
997.851
997.848
997.846
997.843
997.839
997.836
997.833
997.829
997.825
997.821
997.484
997.45
997.418
997.39
997.36
997.328
997.294
997.257
997.22
997.153
997.489
997.454
997.422
997.394
997.365
997.334
997.301
997.266
997.232
997.173
997.483
997.453
997.424
997.398
997.371
997.342
997.311
997.279
997.247
997.195
997.476
997.451
997.424
997.4
997.375
997.348
997.32
997.29
997.261
997.218
997.471
997.449
997.425
997.402
997.379
997.353
997.327
997.3
997.274
997.24
997.466
997.447
997.425
997.405
997.382
997.359
997.334
997.309
997.286
997.26
997.462
997.446
997.426
997.407
997.386
997.364
997.34
997.317
997.296
997.277
997.46
997.445
997.428
997.409
997.389
997.368
997.346
997.324
997.304
997.29
997.459
997.445
997.429
997.411
997.392
997.371
997.349
997.328
997.31
997.3
997.46
997.446
997.43
997.412
997.393
997.372
997.351
997.331
997.313
997.304
997.47
997.478
997.487
997.496
997.504
997.513
997.521
997.529
997.537
997.544
997.551
997.558
997.565
997.572
997.578
997.584
997.59
997.595
997.601
997.606
997.611
997.616
997.62
997.625
997.629
997.633
997.637
997.641
997.644
997.648
997.651
997.655
997.658
997.661
997.664
997.667
997.67
997.673
997.676
997.679
997.682
997.685
997.688
997.691
997.695
997.698
997.701
997.705
997.709
997.713
997.466
997.475
997.484
997.493
997.502
997.51
997.519
997.527
997.535
997.542
997.55
997.557
997.564
997.57
997.577
997.583
997.589
997.595
997.6
997.605
997.61
997.615
997.62
997.624
997.628
997.632
997.636
997.64
997.644
997.648
997.651
997.654
997.658
997.661
997.664
997.667
997.67
997.673
997.676
997.679
997.682
997.685
997.688
997.691
997.694
997.697
997.701
997.705
997.709
997.712
997.462
997.47
997.48
997.49
997.499
997.508
997.516
997.525
997.533
997.541
997.548
997.555
997.562
997.569
997.575
997.582
997.588
997.593
997.599
997.604
997.609
997.614
997.619
997.623
997.628
997.632
997.636
997.64
997.643
997.647
997.65
997.654
997.657
997.66
997.663
997.666
997.669
997.672
997.675
997.678
997.681
997.684
997.687
997.69
997.693
997.696
997.7
997.703
997.707
997.711
997.457
997.465
997.476
997.487
997.496
997.505
997.514
997.523
997.531
997.539
997.546
997.554
997.561
997.568
997.574
997.58
997.586
997.592
997.598
997.603
997.608
997.613
997.618
997.622
997.627
997.631
997.635
997.639
997.643
997.646
997.65
997.653
997.656
997.659
997.663
997.666
997.669
997.672
997.674
997.677
997.68
997.683
997.686
997.689
997.692
997.695
997.698
997.701
997.705
997.708
997.452
997.459
997.472
997.483
997.493
997.502
997.512
997.52
997.529
997.537
997.545
997.552
997.559
997.566
997.573
997.579
997.585
997.591
997.597
997.602
997.607
997.612
997.617
997.621
997.626
997.63
997.634
997.638
997.642
997.645
997.649
997.652
997.655
997.659
997.662
997.665
997.668
997.67
997.673
997.676
997.679
997.682
997.684
997.687
997.69
997.693
997.696
997.699
997.702
997.705
997.446
997.453
997.467
997.48
997.49
997.5
997.509
997.518
997.527
997.535
997.543
997.551
997.558
997.565
997.572
997.578
997.584
997.59
997.596
997.601
997.606
997.611
997.616
997.62
997.625
997.629
997.633
997.637
997.641
997.644
997.648
997.651
997.654
997.657
997.661
997.663
997.666
997.669
997.672
997.675
997.677
997.68
997.683
997.685
997.688
997.69
997.693
997.696
997.698
997.701
997.442
997.447
997.464
997.477
997.488
997.498
997.508
997.517
997.526
997.534
997.542
997.55
997.557
997.564
997.571
997.577
997.583
997.589
997.595
997.6
997.605
997.61
997.615
997.619
997.624
997.628
997.632
997.636
997.64
997.643
997.647
997.65
997.653
997.656
997.659
997.662
997.665
997.668
997.67
997.673
997.676
997.678
997.68
997.683
997.685
997.687
997.69
997.692
997.694
997.696
997.439
997.444
997.462
997.476
997.487
997.497
997.507
997.516
997.525
997.534
997.541
997.549
997.556
997.563
997.57
997.576
997.582
997.588
997.594
997.599
997.604
997.609
997.614
997.618
997.623
997.627
997.631
997.635
997.638
997.642
997.645
997.649
997.652
997.655
997.658
997.661
997.663
997.666
997.669
997.671
997.673
997.676
997.678
997.68
997.682
997.684
997.686
997.688
997.69
997.692
997.437
997.443
997.463
997.477
997.488
997.498
997.508
997.517
997.525
997.534
997.542
997.549
997.556
997.563
997.57
997.576
997.582
997.588
997.593
997.598
997.603
997.608
997.613
997.617
997.622
997.626
997.63
997.634
997.637
997.641
997.644
997.647
997.65
997.653
997.656
997.659
997.662
997.664
997.667
997.669
997.671
997.673
997.675
997.677
997.679
997.681
997.682
997.684
997.685
997.686
997.439
997.45
997.469
997.482
997.493
997.502
997.512
997.52
997.528
997.536
997.543
997.551
997.557
997.564
997.57
997.576
997.582
997.588
997.593
997.598
997.603
997.608
997.612
997.617
997.621
997.625
997.629
997.632
997.636
997.639
997.643
997.646
997.649
997.652
997.654
997.657
997.66
997.662
997.664
997.666
997.669
997.67
997.672
997.674
997.676
997.677
997.678
997.679
997.68
997.681
997.491
997.485
997.486
997.492
997.5
997.508
997.516
997.524
997.531
997.539
997.546
997.553
997.559
997.566
997.572
997.578
997.583
997.589
997.594
997.599
997.604
997.608
997.613
997.617
997.621
997.625
997.629
997.632
997.636
997.639
997.642
997.645
997.648
997.651
997.654
997.656
997.658
997.661
997.663
997.665
997.667
997.668
997.67
997.672
997.673
997.674
997.675
997.676
997.676
997.677
997.504
997.502
997.5
997.504
997.51
997.517
997.523
997.53
997.537
997.544
997.55
997.556
997.563
997.569
997.574
997.58
997.585
997.59
997.595
997.6
997.605
997.609
997.613
997.618
997.621
997.625
997.629
997.632
997.636
997.639
997.642
997.645
997.647
997.65
997.653
997.655
997.657
997.659
997.661
997.663
997.665
997.667
997.668
997.669
997.67
997.671
997.672
997.672
997.673
997.673
997.512
997.512
997.512
997.515
997.52
997.525
997.531
997.537
997.543
997.549
997.555
997.561
997.566
997.572
997.577
997.583
997.588
997.592
997.597
997.602
997.606
997.61
997.614
997.618
997.622
997.626
997.629
997.632
997.635
997.639
997.641
997.644
997.647
997.649
997.652
997.654
997.656
997.658
997.66
997.662
997.663
997.665
997.666
997.667
997.668
997.669
997.669
997.669
997.669
997.669
997.521
997.522
997.522
997.525
997.529
997.534
997.539
997.544
997.549
997.555
997.56
997.565
997.57
997.576
997.58
997.585
997.59
997.595
997.599
997.603
997.607
997.611
997.615
997.619
997.623
997.626
997.629
997.632
997.635
997.638
997.641
997.644
997.646
997.649
997.651
997.653
997.655
997.657
997.658
997.66
997.661
997.663
997.664
997.665
997.665
997.666
997.666
997.666
997.666
997.665
997.53
997.532
997.532
997.535
997.538
997.542
997.546
997.551
997.556
997.56
997.565
997.57
997.575
997.579
997.584
997.588
997.593
997.597
997.601
997.605
997.609
997.613
997.616
997.62
997.623
997.626
997.63
997.633
997.635
997.638
997.641
997.643
997.646
997.648
997.65
997.652
997.654
997.655
997.657
997.658
997.66
997.661
997.662
997.662
997.663
997.663
997.663
997.663
997.662
997.662
997.54
997.541
997.542
997.544
997.547
997.55
997.554
997.558
997.562
997.566
997.57
997.575
997.579
997.583
997.587
997.591
997.595
997.599
997.603
997.607
997.611
997.614
997.617
997.621
997.624
997.627
997.63
997.633
997.635
997.638
997.64
997.643
997.645
997.647
997.649
997.651
997.652
997.654
997.655
997.657
997.658
997.659
997.659
997.66
997.66
997.66
997.66
997.66
997.659
997.658
997.55
997.551
997.552
997.554
997.556
997.559
997.562
997.565
997.568
997.572
997.576
997.579
997.583
997.587
997.591
997.595
997.598
997.602
997.605
997.609
997.612
997.616
997.619
997.622
997.625
997.628
997.63
997.633
997.635
997.638
997.64
997.642
997.644
997.646
997.648
997.65
997.651
997.653
997.654
997.655
997.656
997.657
997.657
997.658
997.658
997.658
997.658
997.657
997.656
997.655
997.559
997.56
997.561
997.563
997.564
997.567
997.569
997.572
997.575
997.578
997.581
997.584
997.588
997.591
997.595
997.598
997.601
997.605
997.608
997.611
997.614
997.617
997.62
997.623
997.626
997.628
997.631
997.633
997.636
997.638
997.64
997.642
997.644
997.646
997.647
997.649
997.65
997.652
997.653
997.654
997.654
997.655
997.655
997.656
997.656
997.656
997.655
997.654
997.653
997.652
997.569
997.57
997.57
997.571
997.573
997.574
997.576
997.579
997.581
997.584
997.587
997.589
997.592
997.595
997.598
997.601
997.604
997.607
997.61
997.613
997.616
997.619
997.621
997.624
997.627
997.629
997.631
997.634
997.636
997.638
997.64
997.642
997.643
997.645
997.647
997.648
997.649
997.65
997.651
997.652
997.653
997.653
997.654
997.654
997.654
997.653
997.653
997.652
997.651
997.649
997.579
997.579
997.579
997.58
997.581
997.582
997.584
997.585
997.587
997.59
997.592
997.594
997.597
997.6
997.602
997.605
997.608
997.61
997.613
997.615
997.618
997.621
997.623
997.625
997.628
997.63
997.632
997.634
997.636
997.638
997.64
997.642
997.643
997.645
997.646
997.647
997.648
997.649
997.65
997.651
997.651
997.652
997.652
997.652
997.652
997.651
997.65
997.649
997.648
997.646
997.589
997.588
997.588
997.588
997.589
997.589
997.591
997.592
997.594
997.595
997.597
997.599
997.601
997.604
997.606
997.608
997.611
997.613
997.615
997.618
997.62
997.622
997.625
997.627
997.629
997.631
997.633
997.635
997.636
997.638
997.64
997.641
997.643
997.644
997.645
997.646
997.647
997.648
997.649
997.649
997.65
997.65
997.65
997.65
997.65
997.649
997.648
997.647
997.646
997.644
997.598
997.596
997.596
997.596
997.596
997.597
997.597
997.598
997.6
997.601
997.602
997.604
997.606
997.608
997.61
997.612
997.614
997.616
997.618
997.62
997.622
997.624
997.626
997.628
997.63
997.632
997.634
997.635
997.637
997.638
997.64
997.641
997.643
997.644
997.645
997.646
997.647
997.647
997.648
997.648
997.649
997.649
997.649
997.648
997.648
997.647
997.646
997.645
997.644
997.642
997.606
997.604
997.604
997.604
997.604
997.604
997.604
997.605
997.605
997.606
997.608
997.609
997.61
997.612
997.614
997.615
997.617
997.619
997.621
997.622
997.624
997.626
997.628
997.629
997.631
997.633
997.634
997.636
997.637
997.639
997.64
997.641
997.642
997.643
997.644
997.645
997.646
997.646
997.647
997.647
997.647
997.647
997.647
997.647
997.646
997.646
997.645
997.644
997.642
997.64
997.615
997.612
997.612
997.611
997.61
997.61
997.61
997.611
997.611
997.612
997.613
997.614
997.615
997.616
997.617
997.619
997.62
997.622
997.623
997.625
997.626
997.628
997.629
997.631
997.632
997.634
997.635
997.637
997.638
997.639
997.64
997.641
997.642
997.643
997.644
997.645
997.645
997.646
997.646
997.646
997.646
997.646
997.646
997.646
997.645
997.644
997.643
997.642
997.64
997.639
997.623
997.62
997.619
997.618
997.617
997.617
997.616
997.616
997.616
997.617
997.617
997.618
997.619
997.62
997.621
997.622
997.623
997.625
997.626
997.627
997.628
997.63
997.631
997.632
997.634
997.635
997.636
997.637
997.638
997.64
997.641
997.641
997.642
997.643
997.644
997.644
997.645
997.645
997.645
997.645
997.645
997.645
997.645
997.645
997.644
997.643
997.642
997.641
997.639
997.637
997.63
997.627
997.626
997.625
997.624
997.623
997.622
997.622
997.622
997.622
997.622
997.622
997.623
997.624
997.625
997.625
997.626
997.627
997.628
997.629
997.631
997.632
997.633
997.634
997.635
997.636
997.637
997.638
997.639
997.64
997.641
997.642
997.642
997.643
997.644
997.644
997.644
997.645
997.645
997.645
997.645
997.644
997.644
997.644
997.643
997.642
997.641
997.64
997.638
997.636
997.637
997.634
997.632
997.631
997.63
997.628
997.628
997.627
997.627
997.627
997.627
997.627
997.627
997.627
997.628
997.629
997.629
997.63
997.631
997.632
997.633
997.634
997.635
997.635
997.636
997.637
997.638
997.639
997.64
997.641
997.641
997.642
997.642
997.643
997.643
997.644
997.644
997.644
997.644
997.644
997.644
997.644
997.643
997.643
997.642
997.641
997.64
997.639
997.637
997.635
997.643
997.64
997.639
997.637
997.635
997.634
997.633
997.632
997.631
997.631
997.631
997.631
997.631
997.631
997.631
997.632
997.632
997.633
997.633
997.634
997.635
997.635
997.636
997.637
997.638
997.638
997.639
997.64
997.64
997.641
997.642
997.642
997.643
997.643
997.643
997.644
997.644
997.644
997.644
997.644
997.643
997.643
997.643
997.642
997.641
997.64
997.639
997.638
997.637
997.635
997.649
997.646
997.644
997.642
997.641
997.639
997.638
997.637
997.636
997.635
997.635
997.635
997.634
997.634
997.635
997.635
997.635
997.635
997.636
997.636
997.637
997.637
997.638
997.638
997.639
997.64
997.64
997.641
997.641
997.642
997.642
997.643
997.643
997.643
997.643
997.644
997.644
997.644
997.643
997.643
997.643
997.643
997.642
997.641
997.641
997.64
997.639
997.637
997.636
997.634
997.655
997.652
997.65
997.648
997.646
997.644
997.642
997.641
997.64
997.639
997.639
997.638
997.638
997.638
997.638
997.638
997.638
997.638
997.638
997.638
997.639
997.639
997.64
997.64
997.64
997.641
997.641
997.642
997.642
997.642
997.643
997.643
997.643
997.643
997.643
997.644
997.644
997.643
997.643
997.643
997.643
997.642
997.642
997.641
997.64
997.639
997.638
997.637
997.636
997.634
997.66
997.657
997.655
997.652
997.65
997.648
997.647
997.646
997.644
997.643
997.643
997.642
997.641
997.641
997.641
997.64
997.64
997.64
997.64
997.641
997.641
997.641
997.641
997.641
997.642
997.642
997.642
997.643
997.643
997.643
997.643
997.643
997.644
997.644
997.644
997.644
997.644
997.643
997.643
997.643
997.642
997.642
997.641
997.641
997.64
997.639
997.638
997.637
997.635
997.634
997.665
997.662
997.659
997.657
997.655
997.653
997.651
997.65
997.648
997.647
997.646
997.645
997.645
997.644
997.644
997.643
997.643
997.643
997.643
997.643
997.643
997.643
997.643
997.643
997.643
997.643
997.643
997.643
997.644
997.644
997.644
997.644
997.644
997.644
997.644
997.644
997.644
997.643
997.643
997.643
997.642
997.642
997.641
997.64
997.64
997.639
997.638
997.637
997.635
997.634
997.67
997.666
997.664
997.661
997.659
997.657
997.655
997.653
997.652
997.651
997.649
997.648
997.648
997.647
997.646
997.646
997.645
997.645
997.645
997.645
997.644
997.644
997.644
997.644
997.644
997.644
997.644
997.644
997.644
997.644
997.644
997.644
997.644
997.644
997.644
997.644
997.644
997.643
997.643
997.643
997.642
997.642
997.641
997.64
997.639
997.639
997.638
997.637
997.635
997.634
997.674
997.67
997.668
997.665
997.663
997.661
997.659
997.657
997.655
997.654
997.653
997.651
997.65
997.65
997.649
997.648
997.648
997.647
997.647
997.646
997.646
997.646
997.646
997.646
997.646
997.645
997.645
997.645
997.645
997.645
997.645
997.645
997.645
997.645
997.644
997.644
997.644
997.644
997.643
997.643
997.642
997.642
997.641
997.64
997.639
997.639
997.638
997.637
997.635
997.634
997.678
997.674
997.671
997.669
997.666
997.664
997.662
997.66
997.659
997.657
997.656
997.654
997.653
997.652
997.651
997.651
997.65