/*--------------------------------*- C++ -*----------------------------------*\
  =========                 |
  \\      /  F ield         | OpenFOAM: The Open Source CFD Toolbox
   \\    /   O peration     | Website:  https://openfoam.org
    \\  /    A nd           | Version:  6
     \\/     M anipulation  |
\*---------------------------------------------------------------------------*/
FoamFile
{
    version     2.0;
    format      ascii;
    class       volVectorField;
    location    "0.85";
    object      U;
}
// * * * * * * * * * * * * * * * * * * * * * * * * * * * * * * * * * * * * * //

dimensions      [0 1 -1 0 0 0 0];

internalField   nonuniform List<vector> 
5600
(
(1.6949 0.00419454 3.7432e-19)
(1.17246 0.0048852 -6.43256e-18)
(0.980167 0.00460566 6.4181e-18)
(1.00665 0.00379799 0)
(1.02957 0.00353636 0)
(1.02552 0.00388223 0)
(1.01705 0.00437723 -1.19749e-17)
(1.01058 0.00486853 1.19477e-17)
(1.00437 0.00541074 0)
(0.997289 0.00604395 0)
(0.989273 0.00677261 0)
(0.980337 0.00760072 0)
(0.970374 0.00854068 0)
(0.959236 0.00960889 -2.35755e-17)
(0.946761 0.0108231 2.35227e-17)
(0.932774 0.012201 -4.69413e-17)
(0.917079 0.0137556 4.68366e-17)
(0.899474 0.0154839 0)
(0.879755 0.0173435 -3.64298e-19)
(0.85777 0.0191973 0)
(1.70407 0.00759683 -3.69102e-19)
(1.16805 0.0105703 6.34357e-18)
(0.979672 0.0111838 -6.33167e-18)
(1.00899 0.0106767 0)
(1.03123 0.0107445 0)
(1.0265 0.0116606 2.44474e-17)
(1.01798 0.0129081 2.42949e-22)
(1.01159 0.014287 -7.3786e-19)
(1.00542 0.0158585 1.32109e-22)
(0.998388 0.0176795 -2.3527e-17)
(0.990455 0.0197688 0)
(0.981632 0.0221471 -4.76092e-17)
(0.971814 0.0248496 4.6788e-17)
(0.960857 0.0279202 0)
(0.948609 0.0314083 0)
(0.934904 0.0353625 0)
(0.919559 0.0398177 0)
(0.902378 0.0447613 -4.63519e-17)
(0.883165 0.0500702 4.66263e-17)
(0.861673 0.0553914 4.54876e-17)
(1.7154 0.00829428 0)
(1.16659 0.0162467 0)
(0.978273 0.0185597 0)
(1.01008 0.017655 0)
(1.03269 0.0177813 2.34273e-17)
(1.02784 0.0193217 -2.41237e-17)
(1.01946 0.0213469 -1.45989e-18)
(1.0133 0.023588 -7.28868e-19)
(1.00734 0.0261628 2.32896e-17)
(1.00053 0.0291545 -2.18018e-17)
(0.992839 0.0325893 -1.45132e-18)
(0.984307 0.0365005 4.70989e-17)
(0.974836 0.0409437 -4.7753e-17)
(0.964296 0.0459887 1.44494e-18)
(0.952555 0.0517129 4.6171e-17)
(0.939466 0.0581932 -9.36475e-17)
(0.924866 0.0654837 -1.43922e-18)
(0.908576 0.0735629 4.59688e-17)
(0.890399 0.08223 -1.43444e-18)
(0.870011 0.0909307 -7.16546e-19)
(1.7294 0.01011 0)
(1.16625 0.0210623 -1.44454e-18)
(0.976448 0.0245816 0)
(1.01063 0.0237351 0)
(1.03407 0.0241906 0)
(1.02941 0.0264442 0)
(1.02136 0.0293012 1.43841e-18)
(1.01561 0.0324454 2.44292e-17)
(1.01005 0.036045 -2.29696e-17)
(1.00363 0.0402102 -1.4342e-18)
(0.99638 0.0449759 2.86559e-18)
(0.988342 0.0503885 0)
(0.979444 0.0565228 -4.43302e-17)
(0.969581 0.0634719 4.42865e-17)
(0.958651 0.0713391 4.56709e-17)
(0.946538 0.0802264 -4.56258e-17)
(0.933111 0.0902066 9.2588e-17)
(0.918215 0.101252 -9.10735e-17)
(0.901672 0.113094 1.42165e-18)
(0.88311 0.125005 1.42084e-18)
(1.74583 0.0120905 -5.60676e-18)
(1.16602 0.0252201 7.08063e-18)
(0.974332 0.0295809 -1.13373e-17)
(1.01118 0.0288951 -1.13315e-17)
(1.03562 0.0297973 2.26547e-17)
(1.03127 0.0328177 2.26443e-17)
(1.0237 0.0365462 -2.26348e-17)
(1.01851 0.0406285 1.4141e-18)
(1.01349 0.0452711 1.4135e-18)
(1.00763 0.0506039 4.52135e-17)
(1.00098 0.056669 -9.03888e-17)
(0.993626 0.0635239 1.41142e-18)
(0.985516 0.0712605 4.65673e-17)
(0.97658 0.0799916 1.41053e-18)
(0.966753 0.0898421 -4.37084e-17)
(0.955965 0.100935 4.79175e-17)
(0.944123 0.113359 1.40873e-18)
(0.93111 0.127082 0)
(0.916788 0.141771 1.40752e-18)
(0.900764 0.156545 1.40731e-18)
(1.76445 0.0139734 5.48654e-18)
(1.1656 0.0287932 -5.54377e-18)
(0.971967 0.0336595 1.388e-18)
(1.01192 0.0330723 0)
(1.03752 0.0344784 2.22149e-17)
(1.03354 0.0383231 -2.22195e-17)
(1.02652 0.0429648 1.38901e-18)
(1.02199 0.0480143 -4.72364e-17)
(1.01763 0.0537086 -2.77933e-18)
(1.01243 0.0601894 8.89514e-17)
(1.00652 0.067502 -4.72648e-17)
(0.999997 0.0757127 -1.39043e-18)
(0.992857 0.084927 -4.72838e-17)
(0.985065 0.0952735 -4.59024e-17)
(0.976602 0.106893 8.76478e-17)
(0.967446 0.119925 8.62738e-17)
(0.957556 0.134467 -9.04649e-17)
(0.946858 0.150483 8.76987e-17)
(0.935268 0.167584 -1.79606e-16)
(0.922398 0.184752 8.77444e-17)
(1.78495 0.0158672 0)
(1.16459 0.0316741 0)
(0.969281 0.0365694 -1.35704e-18)
(1.01303 0.0360855 2.17305e-17)
(1.03991 0.0381409 -2.17497e-17)
(1.03628 0.0429087 -1.36048e-18)
(1.02985 0.0485173 -1.3617e-18)
(1.02603 0.0545593 1.36291e-18)
(1.02236 0.0612992 1.36411e-18)
(1.0179 0.0688847 0)
(1.01281 0.0773626 4.50949e-17)
(1.00724 0.0868067 2.02348e-22)
(1.00121 0.0973335 -4.24361e-17)
(0.994737 0.109083 -8.63171e-17)
(0.987847 0.122207 1.75527e-16)
(0.980574 0.136852 -8.64675e-17)
(0.972934 0.153121 8.7917e-17)
(0.964899 0.170974 -8.6618e-17)
(0.956443 0.189978 -8.80697e-17)
(0.947208 0.209011 8.67719e-17)
(1.80694 0.0186065 0)
(1.16202 0.0334679 1.32154e-18)
(0.966061 0.0376474 -2.11942e-17)
(1.01472 0.0377513 2.2555e-17)
(1.04295 0.0408165 -2.12601e-17)
(1.03951 0.0466193 2.39561e-17)
(1.03361 0.0532434 0)
(1.0305 0.0602926 1.33519e-18)
(1.02753 0.0680435 0)
(1.02382 0.0766512 -1.3395e-18)
(1.0196 0.0861687 4.29334e-17)
(1.01506 0.0966784 -4.30025e-17)
(1.01025 0.108305 -8.61442e-17)
(1.00523 0.121196 8.49348e-17)
(1.00008 0.135505 0)
(0.994874 0.15138 0)
(0.989699 0.168926 8.67017e-17)
(0.984576 0.188104 1.85156e-22)
(0.979545 0.208461 -8.69813e-17)
(0.974282 0.228836 8.84765e-17)
(1.83005 0.0259388 -4.45229e-18)
(1.15525 0.0320547 4.502e-18)
(0.962405 0.0346603 0)
(1.01775 0.0378956 -1.94129e-18)
(1.04667 0.0428588 -2.07543e-17)
(1.04297 0.0496893 -2.2104e-17)
(1.03757 0.0573302 8.34136e-17)
(1.03514 0.0654054 -4.3113e-17)
(1.03284 0.0741192 -4.19066e-17)
(1.02988 0.0836445 4.33196e-17)
(1.02657 0.0940606 -8.42155e-17)
(1.02312 0.105461 1.68835e-16)
(1.01962 0.117974 1.81483e-22)
(1.01614 0.131744 -8.48245e-17)
(1.01282 0.14692 0)
(1.00979 0.163639 8.52344e-17)
(1.00721 0.182003 -1.70881e-16)
(1.00514 0.201985 8.56469e-17)
(1.00375 0.223144 0)
(1.00276 0.2443 0)
(1.85491 0.0420815 -5.56102e-18)
(1.13721 0.0217327 4.37572e-18)
(0.961161 0.024452 0)
(1.02491 0.0369954 2.07883e-17)
(1.05101 0.0451491 -2.02225e-17)
(1.04609 0.0525682 -4.05722e-17)
(1.0414 0.0610531 -2.20724e-22)
(1.0397 0.070149 8.1665e-17)
(1.03803 0.0797635 -8.19271e-17)
(1.03583 0.0900953 4.10953e-17)
(1.03349 0.10129 -8.24555e-17)
(1.03119 0.113455 8.27217e-17)
(1.02903 0.126715 -8.29895e-17)
(1.02713 0.141199 8.32586e-17)
(1.02566 0.157038 8.35291e-17)
(1.02481 0.174346 -8.3801e-17)
(1.0248 0.193199 0)
(1.02581 0.213596 -8.43486e-17)
(1.0281 0.235252 8.4625e-17)
(1.0315 0.25703 8.48784e-17)
(0.83018 0.0208123 0)
(0.792715 0.0230324 0)
(0.747721 0.025579 4.24108e-17)
(0.693133 0.0285037 -2.30205e-17)
(0.626191 0.0318122 -2.51732e-17)
(0.543382 0.0353471 4.1645e-17)
(0.440968 0.0385434 -1.54669e-17)
(0.315362 0.0400444 3.49035e-17)
(0.165306 0.0371201 0)
(0.0462518 0.0210534 0)
(0.83478 0.0603463 -1.84022e-17)
(0.798066 0.0671064 -5.93138e-17)
(0.753818 0.0748913 -2.13325e-17)
(0.700125 0.0838547 2.31579e-17)
(0.634224 0.0940184 2.53194e-17)
(0.552558 0.104898 -5.58376e-17)
(0.451263 0.114794 4.66462e-17)
(0.326496 0.119543 -8.76733e-17)
(0.175957 0.110516 -1.00403e-17)
(0.052555 0.0628915 6.41894e-17)
(0.844555 0.0990687 1.84782e-17)
(0.809236 0.110199 -1.98532e-17)
(0.766433 0.123049 4.28439e-17)
(0.714475 0.137842 4.65156e-17)
(0.650592 0.154612 -5.08665e-17)
(0.571141 0.172545 -2.80478e-17)
(0.471994 0.188825 3.12498e-17)
(0.348659 0.196526 -5.2871e-17)
(0.19713 0.181068 8.07563e-17)
(0.0651705 0.103211 -1.52616e-16)
(0.859857 0.136123 3.69828e-17)
(0.826467 0.151453 0)
(0.785691 0.169147 0)
(0.736197 0.189469 -4.65506e-17)
(0.675182 0.212464 5.09047e-17)
(0.598867 0.236982 2.05106e-21)
(0.502736 0.259106 0)
(0.381307 0.269252 7.0558e-17)
(0.22823 0.247294 -6.06187e-17)
(0.0836936 0.14079 1.88008e-16)
(0.88041 0.170253 -3.68875e-17)
(0.849403 0.189467 0)
(0.811152 0.21167 8.55114e-17)
(0.764751 0.237111 0)
(0.707331 0.265841 5.07485e-17)
(0.634929 0.296374 5.59625e-17)
(0.542531 0.323719 0)
(0.423384 0.335767 1.40613e-16)
(0.268183 0.307367 -2.01311e-17)
(0.107423 0.174497 -7.02175e-17)
(0.905503 0.200542 1.94539e-21)
(0.877257 0.223219 -1.57548e-16)
(0.841948 0.249491 -2.59279e-21)
(0.799163 0.279534 0)
(0.745932 0.313405 -5.04157e-17)
(0.678067 0.349274 -5.55744e-17)
(0.589958 0.381107 0)
(0.473358 0.394435 -1.39534e-16)
(0.315483 0.359672 -1.59691e-16)
(0.135405 0.203361 2.31934e-17)
(0.934168 0.226357 7.24259e-22)
(0.908951 0.252031 1.06984e-21)
(0.876908 0.281874 1.68337e-16)
(0.838148 0.315951 -1.24105e-21)
(0.789547 0.354302 -9.97966e-17)
(0.726662 0.394743 -1.09966e-16)
(0.643211 0.430219 -3.05984e-17)
(0.529283 0.444081 3.447e-17)
(0.368251 0.402989 1.18262e-16)
(0.166446 0.226612 2.28754e-16)
(0.965306 0.247359 -1.71228e-21)
(0.943207 0.275605 7.70691e-17)
(0.914628 0.308524 -1.66186e-16)
(0.880162 0.34606 -4.50686e-17)
(0.836451 0.388211 2.46104e-16)
(0.778794 0.432406 1.08418e-16)
(0.700197 0.470593 -1.20576e-16)
(0.588978 0.484151 0)
(0.424425 0.43671 3.87627e-17)
(0.199206 0.243818 -4.04379e-16)
(0.99779 0.26364 -1.19145e-21)
(0.978362 0.294037 -7.58751e-17)
(0.953269 0.329603 3.8971e-21)
(0.923224 0.370096 -8.86655e-17)
(0.884546 0.415426 9.67822e-17)
(0.832346 0.462612 5.32628e-17)
(0.75888 0.502623 5.91977e-17)
(0.650546 0.515077 -3.32814e-17)
(0.482207 0.461231 3.797e-17)
(0.232368 0.255077 1.75806e-16)
(1.02962 0.276801 -6.94151e-17)
(1.01175 0.308886 -7.44765e-17)
(0.990309 0.346726 8.02358e-17)
(0.964845 0.389691 8.69426e-17)
(0.931483 0.437472 -1.89723e-16)
(0.885196 0.486581 0)
(0.817287 0.527041 0)
(0.71185 0.537075 -3.25326e-17)
(0.538962 0.476492 3.70659e-17)
(0.2639 0.260155 0)
(1.05873 0.297284 6.78876e-17)
(1.04158 0.330359 7.29174e-17)
(1.02369 0.368517 0)
(1.0021 0.411652 -8.52869e-17)
(0.973191 0.458642 0)
(0.931536 0.505215 -1.02615e-16)
(0.867323 0.540835 -5.70754e-17)
(0.762586 0.543862 -6.42523e-17)
(0.584227 0.475669 -1.46846e-16)
(0.288137 0.255572 1.70357e-16)
(1.09003 0.315667 1.57737e-21)
(1.07642 0.349295 -1.48295e-16)
(1.06205 0.386938 2.17315e-21)
(1.04391 0.428965 8.67687e-17)
(1.0184 0.473347 0)
(0.979362 0.51498 1.04468e-16)
(0.915766 0.542901 0)
(0.807995 0.536139 1.30963e-16)
(0.621392 0.458998 1.50848e-20)
(0.305944 0.241023 -1.73848e-16)
(1.12265 0.32995 7.00086e-17)
(1.11305 0.363096 -7.52128e-17)
(1.10206 0.399524 2.43396e-16)
(1.08693 0.439428 -8.80505e-17)
(1.06387 0.480033 -9.62345e-17)
(1.02602 0.515551 -5.30353e-17)
(0.961219 0.534799 2.36027e-21)
(0.84862 0.517769 6.65485e-17)
(0.65277 0.4322 2.66498e-16)
(0.319264 0.220643 4.42297e-17)
(1.1563 0.339298 -1.41684e-16)
(1.1504 0.371237 0)
(1.14241 0.405698 -4.45281e-21)
(1.12965 0.442487 8.91358e-17)
(1.10802 0.478249 2.43625e-16)
(1.06993 0.506735 5.37153e-17)
(1.00233 0.516826 1.19654e-16)
(0.883463 0.48986 -1.01185e-16)
(0.677676 0.397458 -1.93088e-16)
(0.327987 0.196355 1.79558e-16)
(1.19026 0.343402 7.15133e-17)
(1.1875 0.373464 7.68365e-17)
(1.18189 0.405218 -1.65823e-16)
(1.17062 0.437986 -4.50094e-17)
(1.14913 0.467967 -1.96853e-16)
(1.1092 0.488674 -1.6281e-16)
(1.03703 0.489372 -2.41842e-16)
(0.910451 0.453174 1.364e-16)
(0.694338 0.356072 0)
(0.331486 0.169378 -2.04445e-16)
(1.22352 0.342056 1.08004e-16)
(1.22321 0.369632 0)
(1.21912 0.398014 0)
(1.20821 0.426003 0)
(1.18543 0.449498 0)
(1.14193 0.46199 1.09356e-16)
(1.06347 0.453439 1.21857e-16)
(0.927938 0.40912 0)
(0.701642 0.309757 0)
(0.329559 0.140962 -9.16563e-17)
(1.25503 0.335283 -3.61548e-17)
(1.2563 0.359846 -8.60052e-22)
(1.25268 0.384291 -4.19266e-17)
(1.24084 0.406926 4.55257e-17)
(1.21519 0.423499 -4.9793e-17)
(1.16643 0.427697 1.3732e-16)
(1.08015 0.410459 -3.06091e-17)
(0.934861 0.359522 6.90811e-17)
(0.699172 0.260477 -1.9794e-17)
(0.322394 0.112342 9.21666e-17)
(1.28371 0.323339 7.24236e-17)
(1.28554 0.344466 -3.89098e-17)
(1.28119 0.36454 0)
(1.26699 0.381441 -4.56019e-17)
(1.23689 0.390935 0)
(1.1813 0.387109 -5.50237e-17)
(1.086 0.362125 -3.06613e-17)
(0.930718 0.306369 3.46027e-17)
(0.687083 0.210205 0)
(0.310461 0.0846328 -1.15439e-17)
(1.30854 0.306682 -5.42576e-17)
(1.30982 0.324077 3.88659e-17)
(1.30348 0.339486 0)
(1.28553 0.350473 0)
(1.24953 0.352983 4.98166e-17)
(1.18585 0.341703 -2.74784e-17)
(1.08084 0.310222 -3.06236e-17)
(0.915897 0.25166 -6.91237e-17)
(0.66624 0.160827 3.96132e-17)
(0.294507 0.0588122 -5.18741e-17)
(1.32885 0.285933 5.40552e-17)
(1.32857 0.299317 -5.64028e-22)
(1.31905 0.30978 -2.08914e-17)
(1.29601 0.314731 0)
(1.25279 0.310495 -2.48089e-17)
(1.17995 0.292575 -1.36817e-17)
(1.06477 0.256171 3.81188e-17)
(0.890827 0.197109 8.60244e-18)
(0.637312 0.114061 -4.43609e-17)
(0.275029 0.0357207 5.16256e-17)
(1.07237 0.273193 -4.17908e-16)
(1.10138 0.28986 1.03373e-16)
(1.13093 0.303217 0)
(1.16137 0.312375 1.02251e-16)
(1.19235 0.317072 -3.31001e-23)
(1.22294 0.317124 -1.56332e-18)
(1.25225 0.312496 7.77687e-19)
(1.27938 0.303344 -4.99506e-17)
(1.30348 0.289989 4.9793e-17)
(1.3238 0.27299 -2.46496e-17)
(1.08236 0.260618 2.08412e-16)
(1.10911 0.274603 0)
(1.13624 0.285976 0)
(1.16412 0.293907 1.00514e-16)
(1.19267 0.298097 1.57151e-18)
(1.22106 0.298378 -7.8095e-19)
(1.2485 0.294699 7.76993e-19)
(1.27423 0.28716 4.87528e-17)
(1.29754 0.275995 -4.93741e-17)
(1.3176 0.261715 2.46344e-17)
(1.09197 0.250019 0)
(1.11616 0.261758 -1.03009e-16)
(1.14082 0.27111 1.02074e-16)
(1.16619 0.277637 -1.01268e-16)
(1.19233 0.281059 0)
(1.21848 0.281228 -7.81254e-19)
(1.24399 0.278091 -9.8741e-17)
(1.26821 0.271715 0)
(1.29055 0.262274 0)
(1.31016 0.250225 -2.46621e-17)
(1.10049 0.239799 0)
(1.12253 0.249537 1.16059e-21)
(1.14494 0.257149 -1.01991e-16)
(1.16797 0.262431 1.01229e-16)
(1.19176 0.265141 7.85759e-19)
(1.21571 0.26515 -1.00812e-16)
(1.23925 0.262411 -2.635e-22)
(1.26186 0.256966 0)
(1.28308 0.248942 0)
(1.30204 0.238734 0)
(1.10757 0.22984 -1.03613e-16)
(1.12782 0.237942 2.05471e-16)
(1.14828 0.244129 7.96138e-19)
(1.16924 0.24835 -1.01982e-16)
(1.19091 0.250418 -7.85768e-19)
(1.2128 0.250234 -1.00065e-16)
(1.23447 0.247764 1.5024e-16)
(1.25548 0.243037 -3.87901e-19)
(1.27549 0.236151 -4.91376e-17)
(1.29365 0.227441 -2.47182e-17)
(1.1133 0.220103 2.06837e-16)
(1.13195 0.226912 -1.026e-16)
(1.15074 0.231968 1.01823e-16)
(1.16991 0.23532 1.00363e-16)
(1.18972 0.23684 1.02152e-16)
(1.20976 0.236459 9.93172e-17)
(1.22969 0.234164 -4.98514e-17)
(1.24917 0.229982 -3.88227e-19)
(1.26796 0.223993 3.87014e-19)
(1.28524 0.216488 2.4746e-17)
(1.1178 0.21058 -1.03627e-16)
(1.13504 0.216346 -1.02063e-16)
(1.15235 0.220511 -1.0174e-16)
(1.16998 0.223175 -1.01116e-16)
(1.18815 0.224252 -9.97963e-17)
(1.20657 0.223705 9.85688e-17)
(1.22494 0.221536 -4.91028e-17)
(1.24301 0.217777 0)
(1.26061 0.2125 9.92494e-17)
(1.27698 0.205964 0)
(1.12123 0.201287 0)
(1.13719 0.206199 1.02328e-16)
(1.15319 0.209657 -1.01656e-16)
(1.16948 0.211782 7.89659e-19)
(1.18624 0.212518 -1.02155e-16)
(1.20322 0.211847 -1.00167e-16)
(1.22021 0.209785 5.06929e-17)
(1.237 0.206367 -4.97773e-17)
(1.25347 0.201665 -9.93499e-17)
(1.26894 0.195914 0)
(1.12372 0.192245 -1.02835e-16)
(1.13852 0.196452 0)
(1.15337 0.199348 1.01574e-16)
(1.16848 0.201053 1.01829e-16)
(1.184 0.201532 1.24484e-22)
(1.19973 0.200779 9.94188e-17)
(1.2155 0.198818 0)
(1.23113 0.195689 4.98191e-17)
(1.24656 0.191462 4.99194e-17)
(1.26116 0.186354 -2.50244e-17)
(1.1254 0.18347 1.02643e-16)
(1.13916 0.187094 -1.02057e-16)
(1.15298 0.18954 1.0149e-16)
(1.16705 0.190919 -1.00213e-16)
(1.18148 0.191209 1.99598e-16)
(1.19612 0.190411 -9.86695e-17)
(1.2108 0.188554 -7.80861e-19)
(1.2254 0.185677 -3.89536e-19)
(1.23988 0.181849 -4.93869e-17)
(1.25366 0.177277 2.48585e-17)
(1.12638 0.174975 0)
(1.13922 0.178116 1.01923e-16)
(1.15211 0.1802 -1.01407e-16)
(1.16525 0.181327 -7.8877e-19)
(1.17873 0.181481 -9.90143e-17)
(1.19239 0.180667 -7.83365e-19)
(1.20611 0.178916 -7.81328e-19)
(1.21979 0.176266 7.79741e-19)
(1.23341 0.172785 4.9826e-17)
(1.24643 0.168666 2.48868e-17)
(1.12679 0.16677 1.02658e-16)
(1.13878 0.169509 -3.97615e-19)
(1.15085 0.171301 0)
(1.16316 0.172232 0)
(1.17578 0.172291 7.85828e-19)
(1.18858 0.171484 -5.17192e-17)
(1.20146 0.169841 1.29526e-23)
(1.21431 0.167399 5.03352e-17)
(1.22715 0.164223 3.89665e-19)
(1.23947 0.160496 -2.4915e-17)
(1.12671 0.158857 -1.02069e-16)
(1.13794 0.161262 -1.01654e-16)
(1.14927 0.162818 -1.01241e-16)
(1.16084 0.163597 -7.88176e-19)
(1.1727 0.163592 1.27891e-23)
(1.18473 0.162809 5.01689e-17)
(1.19684 0.161276 7.82306e-19)
(1.20896 0.159027 9.57456e-23)
(1.22108 0.156123 0)
(1.23276 0.152738 0)
(1.12622 0.151238 -1.02276e-16)
(1.13677 0.153365 2.03438e-16)
(1.14743 0.154729 1.01159e-16)
(1.15833 0.155391 0)
(1.16951 0.155344 -9.98025e-17)
(1.18085 0.154597 4.94018e-17)
(1.19228 0.153172 0)
(1.20373 0.151103 -5.04199e-17)
(1.21521 0.148446 -2.45986e-17)
(1.2263 0.145363 0)
(1.12541 0.14391 1.02086e-16)
(1.13534 0.145806 -1.01783e-16)
(1.1454 0.147014 0)
(1.1557 0.147585 1.00023e-16)
(1.16625 0.147515 1.00589e-16)
(1.17697 0.14681 -1.00406e-16)
(1.18778 0.145492 -4.93457e-17)
(1.19863 0.14359 0)
(1.20952 0.141157 2.50144e-17)
(1.22007 0.138345 0)
(1.12433 0.136869 1.01499e-16)
(1.13371 0.138571 0)
(1.14321 0.139653 0)
(1.15297 0.140154 -9.99858e-17)
(1.16296 0.140072 -1.07282e-23)
(1.17312 0.139414 4.86505e-17)
(1.18337 0.138199 5.09436e-17)
(1.19368 0.136453 -3.91509e-19)
(1.20403 0.134225 1.95627e-19)
(1.21408 0.131657 1.95538e-19)
(1.12304 0.130108 -2.02621e-16)
(1.13192 0.131648 1.01121e-16)
(1.14092 0.132626 7.88356e-19)
(1.15018 0.133074 -7.86996e-19)
(1.15966 0.13299 -5.02952e-17)
(1.16931 0.132382 0)
(1.17906 0.131265 0)
(1.18886 0.129664 5.01557e-17)
(1.19873 0.127624 0)
(1.20832 0.125277 0)
(1.12159 0.123619 1.01518e-16)
(1.13 0.125023 -1.01383e-16)
(1.13856 0.125915 7.87711e-19)
(1.14737 0.126322 -1.0227e-16)
(1.15639 0.126244 5.10814e-17)
(1.16557 0.125686 0)
(1.17485 0.124663 -7.8471e-19)
(1.1842 0.123196 -4.98058e-17)
(1.19361 0.121328 1.96026e-19)
(1.20278 0.119183 1.95984e-19)
(1.12001 0.117393 -1.0133e-16)
(1.12801 0.118681 3.93971e-19)
(1.13616 0.119503 -1.00745e-16)
(1.14455 0.11988 1.00658e-16)
(1.15315 0.119811 7.85867e-19)
(1.1619 0.119302 -7.85485e-19)
(1.17076 0.118368 4.94675e-17)
(1.17969 0.117026 7.8501e-19)
(1.18869 0.115316 0)
(1.19747 0.113354 0)
(1.11834 0.111419 -3.93258e-19)
(1.12596 0.112609 1.01117e-16)
(1.13374 0.113373 1.00663e-16)
(1.14175 0.113727 -1.01406e-16)
(1.14996 0.113671 5.10819e-17)
(1.15833 0.113211 0)
(1.1668 0.112359 -5.02837e-17)
(1.17534 0.111133 -3.92832e-19)
(1.18395 0.109569 3.92846e-19)
(1.19237 0.107774 0)
(1.11661 0.105687 3.93087e-19)
(1.12389 0.106793 -1.00985e-16)
(1.13132 0.107508 -1.0058e-16)
(1.13899 0.107845 1.00582e-16)
(1.14685 0.107804 -1.00592e-16)
(1.15485 0.10739 0)
(1.16296 0.106616 0)
(1.17115 0.105497 -3.93164e-19)
(1.17941 0.104066 -2.49711e-17)
(1.18749 0.102425 2.53687e-17)
(1.11484 0.100186 9.99848e-17)
(1.12181 0.10122 -1.00068e-16)
(1.12893 0.101894 1.00498e-16)
(1.13628 0.102218 -5.10571e-17)
(1.14381 0.102192 7.85911e-19)
(1.15148 0.101823 0)
(1.15927 0.101121 -5.03457e-17)
(1.16712 0.100101 -3.93496e-19)
(1.17505 0.0987932 2.5587e-17)
(1.18282 0.0972922 -2.52008e-17)
(1.11305 0.0949054 0)
(1.11973 0.0958763 1.00329e-16)
(1.12657 0.0965152 -1.00416e-16)
(1.13363 0.0968294 5.10377e-17)
(1.14086 0.0968201 4.95106e-17)
(1.14823 0.0964932 0)
(1.15571 0.0958582 4.95896e-17)
(1.16326 0.0949285 3.93837e-19)
(1.17088 0.0937339 1.97027e-19)
(1.17836 0.0923616 1.97108e-19)
(1.11127 0.0898337 3.90651e-19)
(1.11768 0.0907494 -3.91399e-19)
(1.12426 0.0913578 1.00333e-16)
(1.13105 0.0916646 7.84891e-19)
(1.13801 0.0916713 -5.02966e-17)
(1.1451 0.0913837 4.95685e-17)
(1.15229 0.0908107 -4.96202e-17)
(1.15956 0.089965 2.4044e-17)
(1.1669 0.0888743 5.91679e-19)
(1.17411 0.08762 -1.97335e-19)
(1.10949 0.0849603 9.94329e-17)
(1.11567 0.0858268 3.90887e-19)
(1.12201 0.0864083 0)
(1.12855 0.0867092 0)
(1.13525 0.0867313 2.33961e-23)
(1.14209 0.0864802 -5.03722e-17)
(1.14902 0.0859646 1.0009e-16)
(1.15603 0.0851962 3.94517e-19)
(1.1631 0.0842011 1.97431e-19)
(1.17007 0.0830553 1.28414e-17)
(1.10775 0.0802745 -9.92503e-17)
(1.11371 0.0810966 -3.90377e-19)
(1.11982 0.081654 -5.00845e-17)
(1.12614 0.0819499 0)
(1.13261 0.0819864 5.02968e-17)
(1.1392 0.0817692 0)
(1.1459 0.0813064 -4.96814e-17)
(1.15266 0.0806092 -2.64537e-17)
(1.15949 0.0797019 3.95262e-19)
(1.16622 0.0786557 1.33684e-23)
(1.10604 0.0757658 -9.98449e-17)
(1.1118 0.0765474 3.89868e-19)
(1.11771 0.0770827 5.00435e-17)
(1.12382 0.077374 -7.83988e-19)
(1.13007 0.0774237 7.85891e-19)
(1.13645 0.0772377 0)
(1.14292 0.0768235 -7.89077e-19)
(1.14945 0.0761918 3.95171e-19)
(1.15605 0.0753653 1.97835e-19)
(1.16257 0.0744107 -1.2475e-17)
(1.10438 0.0714243 9.88863e-17)
(1.10995 0.0721683 3.89359e-19)
(1.11568 0.0726827 -7.81286e-19)
(1.12159 0.0729695 1.56738e-18)
(1.12764 0.0730312 -7.85891e-19)
(1.13382 0.0728736 0)
(1.14008 0.0725041 -2.52661e-17)
(1.14641 0.0719325 0)
(1.1528 0.0711804 0)
(1.1591 0.07031 1.26876e-17)
(1.10277 0.06724 4.9546e-17)
(1.10817 0.0679486 0)
(1.11373 0.0684432 0)
(1.11946 0.0687252 -7.83385e-19)
(1.12533 0.0687975 -4.95109e-17)
(1.13131 0.0686657 0)
(1.13739 0.0683369 2.60718e-17)
(1.14352 0.0678206 -1.18751e-18)
(1.14971 0.067137 3.9648e-19)
(1.15583 0.066344 -1.27022e-17)
(1.10122 0.0632034 -9.92971e-17)
(1.10647 0.0638783 3.88345e-19)
(1.11186 0.0643535 7.80006e-19)
(1.11743 0.0646303 -5.16837e-17)
(1.12313 0.0647116 1.02165e-16)
(1.12894 0.0646031 -7.88384e-19)
(1.13484 0.0643115 2.52973e-17)
(1.14079 0.0638459 -3.96171e-19)
(1.1468 0.0632253 1.98445e-19)
(1.15274 0.0625037 1.98703e-19)
(1.09973 0.0593052 4.89793e-17)
(1.10484 0.0599476 3.8784e-19)
(1.11009 0.0604037 0)
(1.1155 0.0606746 4.93154e-17)
(1.12105 0.0607634 -4.95108e-17)
(1.12669 0.0606758 2.52366e-17)
(1.13243 0.0604181 1.78808e-24)
(1.13821 0.059999 -3.96507e-19)
(1.14405 0.0594364 3.97296e-19)
(1.14983 0.0587805 0)
(1.09831 0.0555366 -3.84958e-19)
(1.10329 0.0561473 3.87335e-19)
(1.1084 0.0565843 0)
(1.11368 0.0568485 -5.00788e-17)
(1.11908 0.0569433 7.85881e-19)
(1.12458 0.0568742 -5.12789e-17)
(1.13015 0.0566473 -2.53285e-17)
(1.13579 0.0562708 -2.5795e-17)
(1.14147 0.0557616 1.98854e-19)
(1.1471 0.0551663 1.99163e-19)
(1.09697 0.051889 -4.9569e-17)
(1.10182 0.0524684 4.99011e-17)
(1.10681 0.0528861 0)
(1.11196 0.0531428 5.08416e-17)
(1.11722 0.0532421 -7.85884e-19)
(1.12258 0.0531892 2.52534e-17)
(1.12802 0.0529902 0)
(1.13351 0.0526528 2.50225e-17)
(1.13905 0.0521927 5.97172e-19)
(1.14453 0.0516533 -1.99393e-19)
(1.09569 0.048354 4.87116e-17)
(1.10043 0.0489025 3.86287e-19)
(1.10531 0.0493005 7.77451e-19)
(1.11034 0.0495489 -7.81877e-19)
(1.11548 0.0496511 0)
(1.12071 0.0496124 2.52618e-17)
(1.12602 0.0494385 -2.61523e-17)
(1.13138 0.0491368 2.58389e-17)
(1.13678 0.048722 1.99264e-19)
(1.14214 0.0482342 1.29756e-17)
(1.09449 0.0449236 -4.90057e-17)
(1.09913 0.0454413 -4.93857e-17)
(1.10391 0.0458192 0)
(1.10882 0.0460582 0)
(1.11385 0.046162 0)
(1.11897 0.0461355 -5.05403e-17)
(1.12416 0.0459843 7.9298e-19)
(1.1294 0.0457153 -2.66566e-17)
(1.13467 0.0453422 3.98937e-19)
(1.1399 0.0449021 -1.27908e-17)
(1.09337 0.0415902 -3.82116e-19)
(1.09791 0.042077 3.85326e-19)
(1.10259 0.0424342 -7.76176e-19)
(1.10741 0.042663 7.8127e-19)
(1.11233 0.0427669 7.85871e-19)
(1.11735 0.0427508 -7.89953e-19)
(1.12243 0.0426199 2.45976e-17)
(1.12755 0.0423808 3.98202e-19)
(1.13271 0.0420462 3.9935e-19)
(1.13783 0.0416502 0)
(1.09232 0.0383463 4.84462e-17)
(1.09678 0.0388019 3.84826e-19)
(1.10137 0.0391379 2.48173e-17)
(1.1061 0.0393556 7.80961e-19)
(1.11093 0.0394584 -4.86092e-24)
(1.11584 0.0394509 -7.90214e-19)
(1.12082 0.0393382 0)
(1.12584 0.0391264 0)
(1.13089 0.0388273 1.27924e-17)
(1.13591 0.0384722 0)
(1.09135 0.0351848 3.80772e-19)
(1.09573 0.0356089 -3.84327e-19)
(1.10025 0.0359232 -2.55719e-17)
(1.10489 0.0361287 4.66472e-24)
(1.10963 0.0362291 7.85867e-19)
(1.11446 0.0362287 2.52953e-17)
(1.11934 0.0361322 2.54225e-17)
(1.12427 0.0359454 -3.98876e-19)
(1.12922 0.0356791 -1.24054e-17)
(1.13415 0.035362 0)
(1.09046 0.0320986 -3.80082e-19)
(1.09477 0.032491 3.83829e-19)
(1.09922 0.0327828 -2.47766e-17)
(1.10378 0.0329755 0)
(1.10844 0.0330723 0)
(1.11319 0.0330774 0)
(1.11799 0.0329954 -2.54382e-17)
(1.12283 0.0328315 -1.31742e-17)
(1.12769 0.0325956 4.00591e-19)
(1.13253 0.0323137 0)
(1.08964 0.0290812 -3.79393e-19)
(1.0939 0.0294413 3.83332e-19)
(1.09828 0.0297102 2.39826e-17)
(1.10277 0.029889 4.48546e-24)
(1.10736 0.0299812 7.85857e-19)
(1.11203 0.0299906 0)
(1.11676 0.0299214 7.95431e-19)
(1.12152 0.0297784 1.15872e-17)
(1.1263 0.0295707 -1.24312e-17)
(1.13107 0.0293218 0)
(1.08891 0.026126 0)
(1.09311 0.0264535 2.45014e-17)
(1.09743 0.0266987 2.47359e-17)
(1.10186 0.026863 -7.79741e-19)
(1.10639 0.0269496 7.85852e-19)
(1.11099 0.026962 0)
(1.11565 0.0269041 1.35307e-17)
(1.12034 0.0267803 -1.1997e-18)
(1.12505 0.0265988 1.30462e-17)
(1.12974 0.0263806 2.01258e-19)
(1.08825 0.0232267 -3.78021e-19)
(1.0924 0.0235211 -2.40874e-17)
(1.09667 0.0237421 -2.39432e-17)
(1.10105 0.0238911 -4.34143e-24)
(1.10552 0.0239711 -7.85846e-19)
(1.11006 0.0239855 0)
(1.11465 0.0239376 -1.35391e-17)
(1.11928 0.0238315 4.00244e-19)
(1.12393 0.0236745 6.02758e-19)
(1.12855 0.023485 -2.01493e-19)
(1.08767 0.0203772 3.77339e-19)
(1.09177 0.0206379 -3.81847e-19)
(1.096 0.0208341 0)
(1.10033 0.0209673 0)
(1.10475 0.02104 0)
(1.10924 0.0210553 -1.26685e-17)
(1.11378 0.0210163 -1.27505e-17)
(1.11835 0.0209265 -4.00582e-19)
(1.12294 0.0207922 2.0113e-19)
(1.12751 0.0206298 2.01729e-19)
(1.08716 0.0175714 -3.76658e-19)
(1.09123 0.017798 3.81353e-19)
(1.09542 0.0179689 1.31086e-17)
(1.09971 0.0180855 -1.324e-17)
(1.10408 0.0181502 0)
(1.10852 0.0181656 2.53453e-17)
(1.11302 0.0181344 1.27584e-17)
(1.11754 0.0180597 6.01388e-18)
(1.12207 0.0179469 -6.24146e-18)
(1.12659 0.0178099 2.01966e-19)
(1.08673 0.0148034 -1.24073e-17)
(1.09077 0.0149954 1.25684e-17)
(1.09492 0.0151406 -1.23274e-17)
(1.09918 0.0152402 2.41341e-17)
(1.10351 0.0152962 7.85825e-19)
(1.10792 0.015311 -2.53537e-17)
(1.11237 0.0152867 6.38314e-18)
(1.11685 0.015226 -6.82157e-18)
(1.12134 0.0151334 6.85261e-18)
(1.12582 0.0150205 0)
(1.08638 0.0120672 1.2385e-17)
(1.09039 0.0122243 -3.80372e-19)
(1.09451 0.0123434 -7.69825e-19)
(1.09874 0.0124256 -1.16732e-17)
(1.10304 0.0124725 0)
(1.10741 0.012486 1.2681e-17)
(1.11183 0.0124678 -7.18546e-18)
(1.11627 0.0124201 -5.22096e-18)
(1.12073 0.0123466 -6.05273e-19)
(1.12517 0.0122565 2.0244e-19)
(1.08609 0.00935721 -1.19881e-17)
(1.09008 0.0094791 -2.09878e-24)
(1.09419 0.00957184 7.69192e-19)
(1.09839 0.00963623 -1.55581e-18)
(1.10267 0.00967356 1.57162e-18)
(1.10702 0.00968518 -7.1354e-18)
(1.1114 0.00967245 5.59215e-18)
(1.11582 0.00963693 3.61761e-18)
(1.12024 0.00958141 3.83739e-18)
(1.12465 0.00951317 -2.02679e-19)
(1.08588 0.00666754 1.15926e-17)
(1.08986 0.00675398 -1.1761e-17)
(1.09395 0.00682012 0)
(1.09813 0.00686644 0)
(1.10239 0.00689376 7.85797e-19)
(1.10672 0.00690298 5.55157e-18)
(1.11108 0.00689501 -6.39498e-18)
(1.11547 0.00687091 2.81611e-18)
(1.11987 0.00683264 -3.03268e-18)
(1.12426 0.0067853 2.02917e-19)
(1.08574 0.00399244 3.73281e-19)
(1.08971 0.0040431 -3.789e-19)
(1.09379 0.00408226 3.07172e-18)
(1.09796 0.00411006 -7.77289e-19)
(1.10221 0.00412687 3.14316e-18)
(1.10652 0.00413315 -2.38003e-18)
(1.11087 0.00412939 0)
(1.11525 0.00411617 -4.02645e-19)
(1.11963 0.0040946 4.04782e-19)
(1.124 0.00406763 -8.12624e-19)
(1.08567 0.00132786 -3.73639e-19)
(1.08964 0.0013436 3.79489e-19)
(1.09371 0.00135605 -3.84773e-18)
(1.09788 0.00136513 7.7932e-19)
(1.10212 0.00137089 -1.5764e-18)
(1.10642 0.00137346 1.59219e-18)
(1.11076 0.00137293 0)
(1.11513 0.00136946 -4.04298e-19)
(1.11951 0.00136334 2.03268e-19)
(1.12387 0.00135551 1.02034e-18)
(1.87483 0.039734 0)
(1.1105 0.0100722 0)
(0.968669 0.0177643 0)
(1.03654 0.0377527 0)
(1.05409 0.0473298 0)
(1.04763 0.0543001 0)
(1.04424 0.0629706 0)
(1.04328 0.0725306 0)
(1.0421 0.0824755 0)
(1.0406 0.093017 0)
(1.03912 0.104363 0)
(1.03782 0.116625 0)
(1.03678 0.129905 0)
(1.03614 0.144316 0)
(1.03608 0.159968 0)
(1.03683 0.176949 0)
(1.03863 0.195299 0)
(1.04186 0.21495 0)
(1.04703 0.235566 0)
(1.0538 0.255798 0)
(1.88245 0.0257909 0)
(1.09497 0.0147944 0)
(0.971256 0.0223634 0)
(1.04158 0.0378232 0)
(1.05514 0.0472706 0)
(1.04839 0.055024 0)
(1.046 0.0638873 0)
(1.04564 0.0734361 0)
(1.04493 0.0833762 0)
(1.04404 0.0938738 0)
(1.04328 0.105093 0)
(1.04276 0.117129 0)
(1.04258 0.130071 0)
(1.0429 0.144009 0)
(1.04388 0.15902 0)
(1.04574 0.175158 0)
(1.04875 0.192413 0)
(1.05326 0.210626 0)
(1.05968 0.229239 0)
(1.06715 0.246669 0)
(1.88698 0.0157942 0)
(1.08678 0.0185668 0)
(0.970169 0.0259628 0)
(1.04268 0.0375434 0)
(1.05521 0.0469056 0)
(1.0487 0.0553839 0)
(1.04712 0.0643915 0)
(1.04736 0.0738826 0)
(1.0472 0.0837719 0)
(1.04693 0.0941773 0)
(1.04686 0.105218 0)
(1.04709 0.116975 0)
(1.04771 0.129523 0)
(1.04887 0.142927 0)
(1.05075 0.15724 0)
(1.05355 0.172478 0)
(1.0575 0.188594 0)
(1.06291 0.205381 0)
(1.07009 0.222242 0)
(1.0783 0.237711 0)
(1.89067 0.0113516 0)
(1.08264 0.0190375 0)
(0.968346 0.0268568 0)
(1.04243 0.0370091 0)
(1.05488 0.0464304 0)
(1.0487 0.055317 0)
(1.04775 0.064432 0)
(1.04858 0.0738991 0)
(1.04898 0.0837325 0)
(1.04933 0.0940229 0)
(1.04991 0.104863 0)
(1.05083 0.116325 0)
(1.05218 0.128466 0)
(1.0541 0.141337 0)
(1.05675 0.154965 0)
(1.06032 0.169344 0)
(1.06502 0.184402 0)
(1.07109 0.199926 0)
(1.0788 0.215352 0)
(1.08754 0.229298 0)
(1.89408 0.00941838 0)
(1.08057 0.0185564 0)
(0.966905 0.0267326 0)
(1.04198 0.0363526 0)
(1.05452 0.0457627 0)
(1.04859 0.0548382 0)
(1.04812 0.0640201 0)
(1.04946 0.0734632 0)
(1.05039 0.0832194 0)
(1.0513 0.0933662 0)
(1.05248 0.103981 0)
(1.05402 0.115123 0)
(1.05602 0.126841 0)
(1.0586 0.139168 0)
(1.06191 0.152116 0)
(1.06613 0.165661 0)
(1.07142 0.179721 0)
(1.07799 0.194087 0)
(1.08605 0.208233 0)
(1.09513 0.220857 0)
(1.89744 0.00851986 0)
(1.07966 0.0180482 0)
(0.965966 0.0263369 0)
(1.04164 0.0356302 0)
(1.05427 0.044938 0)