/*--------------------------------*- C++ -*----------------------------------*\
  =========                 |
  \\      /  F ield         | OpenFOAM: The Open Source CFD Toolbox
   \\    /   O peration     | Website:  https://openfoam.org
    \\  /    A nd           | Version:  6
     \\/     M anipulation  |
\*---------------------------------------------------------------------------*/
FoamFile
{
    version     2.0;
    format      ascii;
    class       volScalarField;
    location    "0.4";
    object      p;
}
// * * * * * * * * * * * * * * * * * * * * * * * * * * * * * * * * * * * * * //

dimensions      [0 2 -2 0 0 0 0];

internalField   nonuniform List<scalar> 
5600
(
999.618
999.702
999.786
999.791
999.783
999.784
999.788
999.792
999.796
999.801
999.807
999.814
999.821
999.83
999.839
999.85
999.862
999.875
999.89
999.907
999.611
999.702
999.786
999.789
999.782
999.783
999.786
999.79
999.795
999.8
999.806
999.812
999.82
999.829
999.838
999.849
999.861
999.874
999.889
999.905
999.604
999.699
999.784
999.787
999.779
999.78
999.784
999.788
999.792
999.797
999.803
999.809
999.816
999.825
999.834
999.844
999.856
999.868
999.882
999.897
999.595
999.694
999.781
999.783
999.775
999.776
999.78
999.783
999.787
999.792
999.797
999.804
999.811
999.818
999.827
999.836
999.847
999.858
999.871
999.884
999.583
999.688
999.777
999.779
999.77
999.771
999.774
999.778
999.781
999.786
999.791
999.796
999.802
999.809
999.817
999.825
999.834
999.844
999.855
999.865
999.569
999.68
999.772
999.773
999.764
999.764
999.767
999.771
999.774
999.778
999.782
999.787
999.792
999.798
999.805
999.812
999.819
999.827
999.834
999.842
999.553
999.671
999.766
999.766
999.757
999.757
999.76
999.762
999.765
999.768
999.772
999.776
999.781
999.785
999.79
999.796
999.801
999.806
999.811
999.815
999.534
999.662
999.76
999.759
999.749
999.748
999.751
999.753
999.755
999.758
999.761
999.764
999.767
999.771
999.774
999.777
999.78
999.783
999.784
999.784
999.514
999.652
999.754
999.751
999.74
999.739
999.742
999.743
999.745
999.747
999.749
999.751
999.753
999.755
999.757
999.758
999.759
999.758
999.757
999.753
999.486
999.646
999.749
999.741
999.73
999.73
999.732
999.733
999.734
999.735
999.737
999.738
999.739
999.74
999.74
999.739
999.737
999.734
999.729
999.721
999.928
999.957
999.989
1000.03
1000.07
1000.12
1000.17
1000.23
1000.3
1000.47
999.925
999.953
999.984
1000.02
1000.06
1000.11
1000.16
1000.22
1000.29
1000.45
999.916
999.942
999.972
1000.01
1000.05
1000.09
1000.14
1000.2
1000.26
1000.41
999.899
999.923
999.952
999.984
1000.02
1000.06
1000.11
1000.16
1000.21
1000.36
999.876
999.897
999.924
999.953
999.986
1000.02
1000.06
1000.1
1000.15
1000.29
999.848
999.865
999.889
999.915
999.943
999.973
1000.01
1000.04
1000.08
1000.2
999.815
999.829
999.849
999.871
999.894
999.918
999.943
999.969
999.997
1000.11
999.779
999.789
999.806
999.823
999.841
999.858
999.876
999.892
999.91
1000
999.74
999.746
999.761
999.773
999.785
999.796
999.806
999.814
999.821
999.889
999.7
999.705
999.715
999.723
999.729
999.733
999.734
999.731
999.726
999.771
999.667
999.674
999.678
999.679
999.676
999.667
999.651
999.627
999.602
999.636
999.63
999.633
999.631
999.626
999.616
999.598
999.572
999.537
999.501
999.516
999.59
999.589
999.582
999.57
999.553
999.528
999.494
999.452
999.409
999.402
999.549
999.543
999.53
999.513
999.49
999.458
999.417
999.369
999.32
999.294
999.506
999.496
999.478
999.456
999.427
999.389
999.342
999.289
999.235
999.192
999.463
999.448
999.427
999.4
999.366
999.324
999.272
999.215
999.158
999.1
999.421
999.403
999.378
999.347
999.31
999.263
999.209
999.149
999.09
999.018
999.381
999.36
999.332
999.298
999.258
999.209
999.153
999.092
999.032
998.949
999.344
999.32
999.29
999.255
999.212
999.163
999.107
999.046
998.985
998.892
999.311
999.284
999.253
999.217
999.174
999.124
999.068
999.007
998.946
998.844
999.662
999.624
999.585
999.546
999.506
999.466
999.428
999.392
999.358
999.328
999.649
999.614
999.577
999.541
999.504
999.468
999.433
999.4
999.369
999.341
999.634
999.6
999.567
999.534
999.5
999.468
999.436
999.406
999.378
999.352
999.621
999.589
999.558
999.528
999.498
999.468
999.439
999.412
999.386
999.362
999.609
999.579
999.551
999.523
999.495
999.468
999.442
999.417
999.393
999.371
999.598
999.571
999.544
999.519
999.493
999.469
999.444
999.421
999.4
999.379
999.589
999.563
999.539
999.515
999.492
999.469
999.447
999.425
999.405
999.386
999.58
999.557
999.534
999.512
999.491
999.469
999.449
999.429
999.41
999.392
999.572
999.551
999.53
999.509
999.489
999.47
999.451
999.432
999.415
999.398
999.565
999.545
999.526
999.507
999.488
999.47
999.452
999.435
999.419
999.403
999.559
999.54
999.522
999.505
999.488
999.47
999.454
999.438
999.422
999.407
999.554
999.536
999.519
999.503
999.487
999.471
999.455
999.44
999.426
999.411
999.549
999.532
999.517
999.501
999.486
999.471
999.457
999.442
999.429
999.415
999.544
999.529
999.514
999.5
999.485
999.471
999.458
999.444
999.431
999.419
999.54
999.526
999.512
999.498
999.485
999.472
999.459
999.446
999.434
999.422
999.536
999.523
999.51
999.497
999.484
999.472
999.46
999.448
999.436
999.425
999.533
999.52
999.508
999.496
999.484
999.472
999.46
999.449
999.438
999.427
999.529
999.518
999.506
999.495
999.483
999.472
999.461
999.45
999.44
999.43
999.526
999.515
999.504
999.494
999.483
999.472
999.462
999.452
999.442
999.432
999.524
999.513
999.503
999.493
999.483
999.472
999.462
999.453
999.443
999.434
999.521
999.511
999.502
999.492
999.482
999.473
999.463
999.454
999.445
999.435
999.519
999.51
999.5
999.491
999.482
999.473
999.463
999.455
999.446
999.437
999.517
999.508
999.499
999.49
999.481
999.473
999.464
999.455
999.447
999.439
999.515
999.506
999.498
999.49
999.481
999.473
999.464
999.456
999.448
999.44
999.513
999.505
999.497
999.489
999.481
999.473
999.465
999.457
999.449
999.441
999.512
999.504
999.496
999.488
999.48
999.473
999.465
999.457
999.45
999.442
999.51
999.502
999.495
999.488
999.48
999.473
999.465
999.458
999.451
999.443
999.508
999.501
999.494
999.487
999.48
999.473
999.465
999.458
999.451
999.444
999.507
999.5
999.493
999.487
999.48
999.473
999.466
999.459
999.452
999.445
999.506
999.499
999.493
999.486
999.479
999.473
999.466
999.459
999.453
999.446
999.505
999.498
999.492
999.486
999.479
999.472
999.466
999.459
999.453
999.447
999.504
999.497
999.491
999.485
999.479
999.472
999.466
999.46
999.454
999.447
999.503
999.497
999.491
999.485
999.479
999.472
999.466
999.46
999.454
999.448
999.502
999.496
999.49
999.484
999.478
999.472
999.466
999.46
999.454
999.448
999.501
999.495
999.49
999.484
999.478
999.472
999.466
999.461
999.455
999.449
999.5
999.495
999.489
999.484
999.478
999.472
999.466
999.461
999.455
999.449
999.499
999.494
999.489
999.483
999.478
999.472
999.467
999.461
999.455
999.45
999.499
999.493
999.488
999.483
999.477
999.472
999.467
999.461
999.456
999.45
999.498
999.493
999.488
999.483
999.477
999.472
999.467
999.461
999.456
999.45
999.497
999.492
999.487
999.482
999.477
999.472
999.467
999.461
999.456
999.451
999.497
999.492
999.487
999.482
999.477
999.472
999.467
999.461
999.456
999.451
999.496
999.492
999.487
999.482
999.477
999.472
999.467
999.462
999.456
999.451
999.496
999.491
999.487
999.482
999.477
999.472
999.467
999.462
999.457
999.451
999.496
999.491
999.486
999.482
999.477
999.472
999.467
999.462
999.457
999.452
999.495
999.491
999.486
999.481
999.477
999.472
999.467
999.462
999.457
999.452
999.495
999.491
999.486
999.481
999.476
999.472
999.467
999.462
999.457
999.452
999.495
999.49
999.486
999.481
999.476
999.472
999.467
999.462
999.457
999.452
999.495
999.49
999.486
999.481
999.476
999.471
999.467
999.462
999.457
999.452
999.495
999.49
999.486
999.481
999.476
999.471
999.467
999.462
999.457
999.452
999.495
999.49
999.486
999.481
999.476
999.471
999.467
999.462
999.457
999.452
999.442
999.652
999.746
999.73
999.719
999.72
999.721
999.721
999.721
999.721
999.721
999.721
999.72
999.719
999.716
999.713
999.708
999.701
999.691
999.675
999.417
999.65
999.741
999.721
999.711
999.713
999.713
999.713
999.712
999.712
999.711
999.71
999.708
999.706
999.703
999.699
999.693
999.685
999.674
999.659
999.399
999.643
999.735
999.713
999.704
999.705
999.705
999.705
999.704
999.703
999.702
999.7
999.698
999.695
999.691
999.686
999.68
999.671
999.661
999.647
999.383
999.634
999.728
999.706
999.697
999.698
999.698
999.697
999.695
999.694
999.692
999.69
999.688
999.684
999.68
999.674
999.667
999.658
999.648
999.634
999.368
999.626
999.722
999.699
999.689
999.69
999.69
999.689
999.687
999.685
999.683
999.681
999.677
999.674
999.669
999.663
999.655
999.646
999.636
999.623
999.353
999.618
999.716
999.692
999.682
999.683
999.682
999.681
999.679
999.677
999.674
999.672
999.668
999.664
999.658
999.652
999.644
999.635
999.625
999.612
999.338
999.609
999.71
999.685
999.675
999.676
999.675
999.673
999.671
999.669
999.666
999.663
999.659
999.654
999.649
999.642
999.634
999.625
999.615
999.603
999.324
999.601
999.704
999.678
999.668
999.668
999.668
999.666
999.663
999.661
999.658
999.654
999.65
999.645
999.639
999.633
999.625
999.616
999.606
999.594
999.309
999.593
999.698
999.672
999.661
999.661
999.661
999.658
999.656
999.653
999.65
999.646
999.642
999.637
999.631
999.624
999.616
999.608
999.598
999.586
999.295
999.585
999.692
999.665
999.654
999.654
999.654
999.651
999.649
999.646
999.642
999.638
999.634
999.629
999.623
999.616
999.608
999.6
999.59
999.579
999.282
999.577
999.686
999.659
999.647
999.648
999.647
999.644
999.642
999.639
999.635
999.631
999.627
999.621
999.615
999.609
999.601
999.593
999.583
999.573
999.269
999.569
999.68
999.653
999.641
999.641
999.64
999.638
999.635
999.632
999.628
999.624
999.619
999.614
999.608
999.602
999.594
999.586
999.577
999.567
999.256
999.562
999.675
999.647
999.635
999.635
999.634
999.631
999.628
999.625
999.622
999.617
999.613
999.608
999.602
999.595
999.588
999.58
999.571
999.561
999.243
999.555
999.669
999.641
999.629
999.629
999.628
999.625
999.622
999.619
999.615
999.611
999.607
999.601
999.595
999.589
999.582
999.574
999.566
999.556
999.231
999.548
999.664
999.635
999.623
999.623
999.622
999.619
999.616
999.613
999.609
999.605
999.601
999.595
999.59
999.583
999.576
999.569
999.561
999.552
999.219
999.541
999.659
999.63
999.617
999.618
999.616
999.614
999.611
999.607
999.604
999.6
999.595
999.59
999.584
999.578
999.571
999.564
999.556
999.548
999.208
999.534
999.654
999.625
999.612
999.612
999.611
999.608
999.605
999.602
999.598
999.594
999.59
999.585
999.579
999.573
999.566
999.559
999.552
999.544
999.197
999.528
999.65
999.619
999.606
999.607
999.606
999.603
999.6
999.597
999.593
999.589
999.585
999.58
999.574
999.568
999.562
999.555
999.548
999.54
999.186
999.522
999.645
999.615
999.601
999.602
999.601
999.598
999.595
999.592
999.588
999.584
999.58
999.575
999.57
999.564
999.558
999.551
999.544
999.537
999.176
999.516
999.641
999.61
999.597
999.597
999.596
999.593
999.59
999.587
999.584
999.58
999.575
999.571
999.566
999.56
999.554
999.548
999.541
999.534
999.166
999.51
999.637
999.605
999.592
999.593
999.592
999.589
999.586
999.583
999.579
999.575
999.571
999.567
999.562
999.556
999.55
999.544
999.538
999.531
999.157
999.505
999.633
999.601
999.588
999.588
999.587
999.585
999.582
999.579
999.575
999.571
999.567
999.563
999.558
999.553
999.547
999.541
999.535
999.528
999.148
999.5
999.629
999.597
999.583
999.584
999.583
999.58
999.578
999.575
999.571
999.567
999.563
999.559
999.554
999.549
999.544
999.538
999.532
999.526
999.14
999.495
999.626
999.593
999.579
999.58
999.579
999.577
999.574
999.571
999.567
999.564
999.56
999.556
999.551
999.546
999.541
999.535
999.529
999.523
999.131
999.49
999.622
999.59
999.575
999.576
999.576
999.573
999.57
999.567
999.564
999.56
999.557
999.552
999.548
999.543
999.538
999.533
999.527
999.521
999.124
999.486
999.619
999.586
999.572
999.573
999.572
999.569
999.567
999.564
999.561
999.557
999.553
999.549
999.545
999.54
999.535
999.53
999.525
999.519
999.116
999.482
999.616
999.583
999.568
999.569
999.569
999.566
999.563
999.561
999.558
999.554
999.55
999.546
999.542
999.538
999.533
999.528
999.523
999.517
999.109
999.478
999.613
999.58
999.565
999.566
999.565
999.563
999.56
999.558
999.555
999.551
999.548
999.544
999.54
999.535
999.531
999.526
999.521
999.515
999.103
999.474
999.61
999.577
999.562
999.563
999.563
999.56
999.557
999.555
999.552
999.549
999.545
999.541
999.537
999.533
999.529
999.524
999.519
999.514
999.097
999.47
999.608
999.574
999.559
999.56
999.56
999.557
999.555
999.552
999.549
999.546
999.543
999.539
999.535
999.531
999.527
999.522
999.517
999.512
999.091
999.467
999.605
999.571
999.556
999.558
999.557
999.555
999.552
999.55
999.547
999.544
999.54
999.537
999.533
999.529
999.525
999.52
999.516
999.511
999.085
999.464
999.603
999.569
999.554
999.555
999.555
999.552
999.55
999.547
999.544
999.541
999.538
999.535
999.531
999.527
999.523
999.519
999.514
999.51
999.08
999.461
999.601
999.566
999.552
999.553
999.552
999.55
999.548
999.545
999.542
999.539
999.536
999.533
999.529
999.525
999.521
999.517
999.513
999.508
999.075
999.458
999.599
999.564
999.549
999.551
999.55
999.548
999.545
999.543
999.54
999.537
999.534
999.531
999.527
999.524
999.52
999.516
999.512
999.507
999.071
999.456
999.597
999.562
999.547
999.549
999.548
999.546
999.543
999.541
999.538
999.536
999.533
999.529
999.526
999.522
999.518
999.514
999.51
999.506
999.067
999.453
999.595
999.56
999.545
999.547
999.546
999.544
999.542
999.539
999.537
999.534
999.531
999.528
999.524
999.521
999.517
999.513
999.509
999.505
999.063
999.451
999.593
999.558
999.543
999.545
999.544
999.542
999.54
999.538
999.535
999.532
999.529
999.526
999.523
999.52
999.516
999.512
999.508
999.504
999.059
999.449
999.592
999.557
999.542
999.543
999.543
999.541
999.538
999.536
999.534
999.531
999.528
999.525
999.522
999.518
999.515
999.511
999.507
999.503
999.056
999.447
999.59
999.555
999.54
999.542
999.541
999.539
999.537
999.535
999.532
999.53
999.527
999.524
999.521
999.517
999.514
999.51
999.506
999.503
999.053
999.445
999.589
999.554
999.539
999.54
999.54
999.538
999.536
999.534
999.531
999.529
999.526
999.523
999.52
999.516
999.513
999.509
999.506
999.502
999.05
999.444
999.588
999.553
999.538
999.539
999.539
999.537
999.535
999.532
999.53
999.527
999.525
999.522
999.519
999.516
999.512
999.509
999.505
999.501
999.048
999.442
999.587
999.551
999.536
999.538
999.538
999.536
999.534
999.531
999.529
999.527
999.524
999.521
999.518
999.515
999.511
999.508
999.504
999.501
999.046
999.441
999.586
999.55
999.535
999.537
999.537
999.535
999.533
999.531
999.528
999.526
999.523
999.52
999.517
999.514
999.511
999.507
999.504
999.5
999.044
999.44
999.585
999.55
999.535
999.536
999.536
999.534
999.532
999.53
999.527
999.525
999.522
999.52
999.517
999.514
999.51
999.507
999.503
999.5
999.042
999.439
999.585
999.549
999.534
999.536
999.535
999.533
999.531
999.529
999.527
999.524
999.522
999.519
999.516
999.513
999.51
999.506
999.503
999.499
999.041
999.438
999.584
999.548
999.533
999.535
999.535
999.533
999.531
999.529
999.526
999.524
999.521
999.519
999.516
999.513
999.509
999.506
999.503
999.499
999.041
999.438
999.584
999.548
999.533
999.534
999.534
999.532
999.53
999.528
999.526
999.523
999.521
999.518
999.515
999.512
999.509
999.506
999.502
999.499
999.041
999.437
999.583
999.548
999.533
999.534
999.534
999.532
999.53
999.528
999.526
999.523
999.521
999.518
999.515
999.512
999.509
999.506
999.502
999.499
999.044
999.434
999.583
999.548
999.532
999.534
999.534
999.532
999.53
999.528
999.525
999.523
999.52
999.518
999.515
999.512
999.509
999.505
999.502
999.499
999.057
999.425
999.581
999.55
999.533
999.534
999.534
999.532
999.53
999.527
999.525
999.523
999.52
999.518
999.515
999.512
999.509
999.505
999.502
999.499
999.169
999.135
999.103
999.075
999.045
999.014
998.981
998.945
998.909
998.842
999.174
999.14
999.107
999.08
999.051
999.021
998.988
998.954
998.921
998.862
999.17
999.14
999.111
999.085
999.058
999.03
998.999
998.967
998.935
998.884
999.166
999.14
999.113
999.089
999.063
999.037
999.008
998.979
998.949
998.906
999.163
999.14
999.115
999.092
999.068
999.043
999.016
998.989
998.963
998.928
999.16
999.14
999.118
999.096
999.073
999.049
999.024
998.999
998.975
998.948
999.159
999.141
999.12
999.1
999.078
999.055
999.031
999.007
998.986
998.966
999.159
999.142
999.123
999.103
999.082
999.059
999.037
999.014
998.994
998.979
999.16
999.144
999.126
999.106
999.085
999.063
999.041
999.019
999
998.989
999.161
999.145
999.127
999.108
999.087
999.065
999.043
999.021
999.003
998.993
999.172
999.182
999.193
999.204
999.215
999.226
999.236
999.247
999.257
999.267
999.277
999.287
999.297
999.306
999.315
999.324
999.332
999.341
999.349
999.356
999.364
999.371
999.378
999.384
999.39
999.396
999.402
999.408
999.413
999.418
999.422
999.427
999.432
999.436
999.44
999.444
999.448
999.452
999.456
999.46
999.465
999.469
999.473
999.478
999.483
999.488
999.494
999.5
999.507
999.513
999.168
999.178
999.189
999.2
999.211
999.222
999.233
999.244
999.254
999.264
999.274
999.284
999.294
999.303
999.313
999.322
999.33
999.339
999.347
999.354
999.362
999.369
999.376
999.382
999.389
999.395
999.401
999.406
999.411
999.416
999.421
999.426
999.43
999.435
999.439
999.443
999.447
999.451
999.455
999.459
999.463
999.468
999.472
999.477
999.482
999.487
999.492
999.498
999.505
999.511
999.162
999.171
999.184
999.195
999.207
999.218
999.228
999.239
999.25
999.26
999.27
999.28
999.29
999.3
999.309
999.318
999.327
999.335
999.343
999.351
999.359
999.366
999.373
999.38
999.386
999.392
999.398
999.404
999.409
999.414
999.419
999.424
999.428
999.433
999.437
999.441
999.445
999.449
999.453
999.457
999.462
999.466
999.47
999.475
999.479
999.484
999.49
999.495
999.502
999.508
999.155
999.164
999.177
999.19
999.201
999.212
999.223
999.234
999.245
999.256
999.266
999.276
999.286
999.296
999.305
999.314
999.323
999.331
999.34
999.348
999.355
999.363
999.37
999.376
999.383
999.389
999.395
999.401
999.406
999.411
999.416
999.421
999.426
999.43
999.434
999.438
999.443
999.447
999.451
999.455
999.459
999.463
999.467
999.472
999.476
999.481
999.486
999.491
999.498
999.503
999.147
999.156
999.17
999.183
999.195
999.207
999.218
999.229
999.24
999.251
999.261
999.271
999.281
999.291
999.3
999.309
999.318
999.327
999.335
999.343
999.351
999.358
999.366
999.372
999.379
999.385
999.391
999.397
999.402
999.408
999.413
999.418
999.422
999.427
999.431
999.435
999.439
999.443
999.447
999.451
999.455
999.459
999.463
999.468
999.472
999.477
999.481
999.486
999.492
999.497
999.14
999.147
999.164
999.177
999.19
999.201
999.213
999.224
999.235
999.246
999.256
999.266
999.276
999.286
999.295
999.305
999.314
999.322
999.331
999.339
999.346
999.354
999.361
999.368
999.375
999.381
999.387
999.393
999.398
999.404
999.409
999.414
999.418
999.423
999.427
999.431
999.435
999.439
999.443
999.447
999.451
999.455
999.459
999.463
999.467
999.471
999.476
999.48
999.485
999.49
999.134
999.14
999.158
999.173
999.185
999.197
999.208
999.22
999.231
999.242
999.252
999.262
999.272
999.282
999.291
999.3
999.309
999.318
999.326
999.334
999.342
999.349
999.357
999.363
999.37
999.377
999.383
999.388
999.394
999.399
999.405
999.409
999.414
999.419
999.423
999.427
999.431
999.435
999.439
999.443
999.446
999.45
999.454
999.458
999.461
999.465
999.469
999.473
999.478
999.482
999.13
999.135
999.154
999.17
999.182
999.194
999.205
999.217
999.228
999.238
999.248
999.259
999.268
999.278
999.287
999.296
999.305
999.313
999.322
999.33
999.337
999.345
999.352
999.359
999.366
999.372
999.378
999.384
999.39
999.395
999.4
999.405
999.41
999.414
999.418
999.423
999.426
999.43
999.434
999.438
999.441
999.445
999.448
999.452
999.455
999.459
999.462
999.466
999.469
999.473
999.127
999.134
999.154
999.169
999.181
999.193
999.204
999.215
999.226
999.236
999.246
999.256
999.266
999.275
999.284
999.293
999.301
999.31
999.318
999.326
999.333
999.341
999.348
999.355
999.361
999.368
999.374
999.379
999.385
999.39
999.395
999.4
999.405
999.409
999.413
999.418
999.421
999.425
999.429
999.432
999.436
999.439
999.442
999.445
999.448
999.451
999.455
999.458
999.461
999.464
999.128
999.141
999.16
999.174
999.186
999.197
999.208
999.218
999.228
999.237
999.247
999.256
999.265
999.274
999.282
999.291
999.299
999.307
999.315
999.323
999.33
999.337
999.344
999.351
999.357
999.363
999.369
999.375
999.38
999.386
999.391
999.395
999.4
999.404
999.408
999.412
999.416
999.42
999.423
999.426
999.43
999.433
999.436
999.439
999.441
999.444
999.447
999.449
999.452
999.454
999.177
999.172
999.174
999.182
999.191
999.2
999.21
999.219
999.228
999.237
999.246
999.255
999.264
999.273
999.281
999.289
999.298
999.306
999.313
999.321
999.328
999.335
999.342
999.349
999.355
999.361
999.367
999.373
999.378
999.383
999.388
999.393
999.397
999.402
999.406
999.409
999.413
999.416
999.42
999.423
999.426
999.428
999.431
999.434
999.436
999.438
999.44
999.442
999.444
999.446
999.191
999.189
999.189
999.194
999.201
999.209
999.217
999.226
999.234
999.242
999.251
999.259
999.267
999.275
999.283
999.291
999.299
999.307
999.314
999.321
999.328
999.335
999.342
999.348
999.354
999.36
999.366
999.371
999.376
999.381
999.386
999.391
999.395
999.399
999.403
999.406
999.41
999.413
999.416
999.419
999.422
999.424
999.427
999.429
999.431
999.433
999.435
999.436
999.438
999.439
999.2
999.201
999.201
999.206
999.212
999.219
999.226
999.233
999.241
999.248
999.256
999.264
999.271
999.279
999.286
999.294
999.301
999.308
999.315
999.322
999.329
999.335
999.341
999.348
999.353
999.359
999.364
999.37
999.375
999.379
999.384
999.388
999.392
999.396
999.4
999.403
999.407
999.41
999.413
999.415
999.418
999.42
999.422
999.424
999.426
999.428
999.429
999.43
999.432
999.433
999.21
999.212
999.213
999.217
999.222
999.228
999.234
999.241
999.247
999.254
999.261
999.269
999.276
999.283
999.29
999.297
999.303
999.31
999.317
999.323
999.329
999.336
999.341
999.347
999.353
999.358
999.363
999.368
999.373
999.378
999.382
999.386
999.39
999.394
999.397
999.4
999.403
999.406
999.409
999.411
999.414
999.416
999.418
999.42
999.421
999.422
999.424
999.425
999.425
999.426
999.22
999.222
999.224
999.227
999.232
999.237
999.242
999.248
999.254
999.261
999.267
999.274
999.28
999.287
999.293
999.299
999.306
999.312
999.318
999.324
999.33
999.336
999.342
999.347
999.352
999.358
999.362
999.367
999.372
999.376
999.38
999.384
999.388
999.391
999.394
999.397
999.4
999.403
999.405
999.408
999.41
999.412
999.413
999.415
999.416
999.417
999.418
999.419
999.419
999.419
999.23
999.233
999.235
999.238
999.242
999.246
999.251
999.256
999.261
999.267
999.273
999.279
999.285
999.291
999.297
999.303
999.309
999.314
999.32
999.326
999.331
999.337
999.342
999.347
999.352
999.357
999.362
999.366
999.37
999.374
999.378
999.382
999.385
999.389
999.392
999.395
999.397
999.4
999.402
999.404
999.406
999.408
999.409
999.41
999.411
999.412
999.413
999.413
999.413
999.413
999.241
999.243
999.245
999.248
999.251
999.255
999.259
999.264
999.269
999.274
999.279
999.284
999.289
999.295
999.3
999.306
999.311
999.317
999.322
999.327
999.333
999.338
999.343
999.347
999.352
999.357
999.361
999.365
999.369
999.373
999.377
999.38
999.383
999.386
999.389
999.392
999.394
999.396
999.398
999.4
999.402
999.403
999.405
999.406
999.406
999.407
999.407
999.407
999.407
999.407
999.252
999.253
999.255
999.258
999.26
999.264
999.267
999.271
999.276
999.28
999.285
999.289
999.294
999.299
999.304
999.309
999.314
999.319
999.324
999.329
999.334
999.339
999.343
999.348
999.352
999.356
999.36
999.364
999.368
999.372
999.375
999.378
999.381
999.384
999.387
999.389
999.391
999.393
999.395
999.397
999.398
999.399
999.4
999.401
999.402
999.402
999.402
999.402
999.401
999.4
999.262
999.263
999.265
999.267
999.269
999.272
999.275
999.279
999.282
999.286
999.29
999.295
999.299
999.304
999.308
999.313
999.317
999.322
999.326
999.331
999.335
999.34
999.344
999.348
999.352
999.356
999.36
999.363
999.367
999.37
999.373
999.376
999.379
999.382
999.384
999.386
999.388
999.39
999.392
999.393
999.394
999.395
999.396
999.397
999.397
999.397
999.397
999.396
999.396
999.395
999.273
999.273
999.274
999.276
999.278
999.28
999.283
999.286
999.289
999.293
999.296
999.3
999.304
999.308
999.312
999.316
999.32
999.325
999.329
999.333
999.337
999.341
999.345
999.349
999.352
999.356
999.359
999.363
999.366
999.369
999.372
999.375
999.377
999.379
999.382
999.384
999.385
999.387
999.389
999.39
999.391
999.392
999.392
999.393
999.393
999.392
999.392
999.391
999.39
999.389
999.283
999.282
999.284
999.285
999.286
999.288
999.29
999.293
999.296
999.299
999.302
999.305
999.309
999.312
999.316
999.32
999.323
999.327
999.331
999.335
999.338
999.342
999.346
999.349
999.353
999.356
999.359
999.362
999.365
999.368
999.37
999.373
999.375
999.377
999.379
999.381
999.383
999.384
999.385
999.386
999.387
999.388
999.388
999.388
999.388
999.388
999.387
999.386
999.385
999.384
999.292
999.291
999.292
999.293
999.294
999.296
999.297
999.3
999.302
999.304
999.307
999.31
999.313
999.316
999.32
999.323
999.326
999.33
999.333
999.336
999.34
999.343
999.346
999.35
999.353
999.356
999.359
999.361
999.364
999.367
999.369
999.371
999.373
999.375
999.377
999.379
999.38
999.381
999.382
999.383
999.384
999.384
999.384
999.384
999.384
999.384
999.383
999.382
999.38
999.378
999.301
999.3
999.3
999.301
999.302
999.303
999.304
999.306
999.308
999.31
999.312
999.315
999.318
999.32
999.323
999.326
999.329
999.332
999.335
999.338
999.341
999.344
999.347
999.35
999.353
999.356
999.358
999.361
999.363
999.366
999.368
999.37
999.372
999.373
999.375
999.376
999.378
999.379
999.379
999.38
999.381
999.381
999.381
999.381
999.38
999.379
999.378
999.377
999.376
999.374
999.31
999.308
999.308
999.309
999.309
999.31
999.311
999.312
999.314
999.315
999.317
999.319
999.322
999.324
999.327
999.329
999.332
999.335
999.337
999.34
999.343
999.346
999.348
999.351
999.353
999.356
999.358
999.36
999.363
999.365
999.367
999.368
999.37
999.372
999.373
999.374
999.375
999.376
999.377
999.377
999.377
999.377
999.377
999.377
999.376
999.375
999.374
999.373
999.371
999.369
999.317
999.316
999.316
999.316
999.316
999.316
999.317
999.318
999.319
999.32
999.322
999.324
999.326
999.328
999.33
999.332
999.335
999.337
999.339
999.342
999.344
999.347
999.349
999.351
999.354
999.356
999.358
999.36
999.362
999.364
999.365
999.367
999.368
999.37
999.371
999.372
999.373
999.373
999.374
999.374
999.374
999.374
999.374
999.373
999.373
999.372
999.37
999.369
999.367
999.365
999.325
999.323
999.323
999.322
999.322
999.322
999.323
999.323
999.324
999.325
999.327
999.328
999.33
999.331
999.333
999.335
999.337
999.339
999.341
999.344
999.346
999.348
999.35
999.352
999.354
999.356
999.358
999.36
999.361
999.363
999.364
999.366
999.367
999.368
999.369
999.37
999.371
999.371
999.371
999.372
999.371
999.371
999.371
999.37
999.369
999.368
999.367
999.365
999.363
999.361
999.332
999.329
999.329
999.328
999.328
999.328
999.328
999.328
999.329
999.33
999.331
999.332
999.333
999.335
999.336
999.338
999.34
999.342
999.343
999.345
999.347
999.349
999.351
999.353
999.354
999.356
999.358
999.359
999.361
999.362
999.363
999.365
999.366
999.367
999.367
999.368
999.368
999.369
999.369
999.369
999.369
999.368
999.368
999.367
999.366
999.365
999.363
999.362
999.359
999.357
999.338
999.336
999.335
999.334
999.333
999.333
999.333
999.333
999.334
999.334
999.335
999.336
999.337
999.338
999.339
999.341
999.342
999.344
999.345
999.347
999.348
999.35
999.352
999.353
999.355
999.356
999.357
999.359
999.36
999.361
999.362
999.363
999.364
999.365
999.366
999.366
999.366
999.367
999.367
999.366
999.366
999.366
999.365
999.364
999.363
999.362
999.36
999.358
999.356
999.354
999.344
999.342
999.341
999.34
999.339
999.338
999.338
999.338
999.338
999.338
999.339
999.339
999.34
999.341
999.342
999.343
999.344
999.346
999.347
999.348
999.35
999.351
999.352
999.354
999.355
999.356
999.357
999.359
999.36
999.361
999.361
999.362
999.363
999.364
999.364
999.364
999.365
999.365
999.364
999.364
999.364
999.363
999.362
999.361
999.36
999.359
999.357
999.355
999.353
999.35
999.35
999.347
999.346
999.345
999.343
999.343
999.342
999.342
999.342
999.342
999.342
999.343
999.343
999.344
999.345
999.345
999.346
999.347
999.349
999.35
999.351
999.352
999.353
999.354
999.355
999.356
999.357
999.358
999.359
999.36
999.361
999.361
999.362
999.362
999.362
999.363
999.363
999.363
999.362
999.362
999.361
999.361
999.36
999.359
999.357
999.356
999.354
999.352
999.35
999.347
999.355
999.352
999.351
999.349
999.348
999.347
999.346
999.346
999.346
999.345
999.345
999.346
999.346
999.346
999.347
999.348
999.348
999.349
999.35
999.351
999.352
999.353
999.354
999.355
999.355
999.356
999.357
999.358
999.359
999.359
999.36
999.36
999.361
999.361
999.361
999.361
999.361
999.361
999.36
999.36
999.359
999.358
999.357
999.356
999.355
999.353
999.351
999.349
999.347
999.345
999.359
999.356
999.355
999.354
999.352
999.351
999.35
999.35
999.349
999.349
999.349
999.349
999.349
999.349
999.349
999.35
999.35
999.351
999.352
999.352
999.353
999.354
999.354
999.355
999.356
999.356
999.357
999.358
999.358
999.359
999.359
999.359
999.36
999.36
999.36
999.36
999.359
999.359
999.359
999.358
999.357
999.356
999.355
999.354
999.352
999.351
999.349
999.347
999.345
999.342
999.363
999.361
999.359
999.358
999.356
999.355
999.354
999.353
999.352
999.352
999.351
999.351
999.351
999.351
999.351
999.352
999.352
999.352
999.353
999.353
999.354
999.354
999.355
999.356
999.356
999.357
999.357
999.357
999.358
999.358
999.358
999.359
999.359
999.359
999.358
999.358
999.358
999.357
999.357
999.356
999.355
999.354
999.353
999.352
999.35
999.349
999.347
999.345
999.342
999.34
999.367
999.365
999.363
999.361
999.36
999.358
999.357
999.356
999.355
999.355
999.354
999.354
999.354
999.354
999.354
999.354
999.354
999.354
999.354
999.355
999.355
999.355
999.356
999.356
999.356
999.357
999.357
999.357
999.357
999.358
999.358
999.358
999.358
999.358
999.357
999.357
999.357
999.356
999.355
999.354
999.353
999.352
999.351
999.35
999.348
999.347
999.345
999.343
999.34
999.338
999.371
999.368
999.366
999.365
999.363
999.361
999.36
999.359
999.358
999.357
999.357
999.356
999.356
999.356
999.355