/*--------------------------------*- C++ -*----------------------------------*\
  =========                 |
  \\      /  F ield         | OpenFOAM: The Open Source CFD Toolbox
   \\    /   O peration     | Website:  https://openfoam.org
    \\  /    A nd           | Version:  6
     \\/     M anipulation  |
\*---------------------------------------------------------------------------*/
FoamFile
{
    version     2.0;
    format      ascii;
    class       surfaceScalarField;
    location    "1.45";
    object      phi;
}
// * * * * * * * * * * * * * * * * * * * * * * * * * * * * * * * * * * * * * //

dimensions      [0 3 -1 0 0 0 0];

internalField   nonuniform List<scalar> 
11030
(
0.000121378
6.09179e-07
0.000121453
-7.45186e-08
0.000121208
2.44845e-07
0.000120646
5.61431e-07
0.000120154
4.92242e-07
0.000119727
4.27169e-07
0.000119264
4.63033e-07
0.000118734
5.30407e-07
0.000118133
6.0089e-07
0.000117451
6.81319e-07
0.000116674
7.7771e-07
0.000115783
8.91092e-07
0.00011476
1.02232e-06
0.000113587
1.17336e-06
0.00011224
1.34672e-06
0.000110695
1.54491e-06
0.000108925
1.7698e-06
0.000106905
2.02092e-06
0.000104612
2.29229e-06
2.56267e-06
0.00010205
0.00012237
2.03313e-07
0.000121903
3.92059e-07
0.000121195
9.53247e-07
0.000120644
1.11265e-06
0.000120159
9.77255e-07
0.000119654
9.31894e-07
0.000119108
1.00902e-06
0.000118512
1.12656e-06
0.000117851
1.26112e-06
0.00011711
1.42227e-06
0.000116272
1.61627e-06
0.000115318
1.84454e-06
0.000114232
2.10919e-06
0.000112991
2.41407e-06
0.000111574
2.76391e-06
0.000109955
3.16351e-06
0.000108109
3.61636e-06
0.000106008
4.12132e-06
0.000103634
4.66621e-06
5.21296e-06
0.000100984
0.00012191
1.72809e-07
0.000121702
6.00044e-07
0.000121176
1.47928e-06
0.00012061
1.67857e-06
0.000120086
1.50137e-06
0.00011955
1.46801e-06
0.000118967
1.59259e-06
0.000118325
1.76822e-06
0.000117614
1.97159e-06
0.00011682
2.21668e-06
0.000115925
2.51106e-06
0.000114913
2.85664e-06
0.000113766
3.25669e-06
0.000112463
3.71683e-06
0.000110983
4.2439e-06
0.000109302
4.84484e-06
0.000107393
5.52474e-06
0.000105233
6.28189e-06
0.0001028
7.09841e-06
7.92207e-06
0.000100091
0.000121716
2.37765e-07
0.000121485
8.31363e-07
0.000121008
1.95583e-06
0.000120473
2.21351e-06
0.000119956
2.0193e-06
0.000119413
2.01061e-06
0.000118812
2.1935e-06
0.000118143
2.43761e-06
0.000117396
2.71824e-06
0.000116559
3.05375e-06
0.000115617
3.45333e-06
0.000114554
3.91945e-06
0.000113354
4.45651e-06
0.000111999
5.07185e-06
0.000110469
5.77424e-06
0.000108741
6.57265e-06
0.000106792
7.4736e-06
0.000104599
8.47492e-06
0.000102144
9.55331e-06
1.06446e-05
9.94216e-05
0.000121535
3.78583e-07
0.000121256
1.10992e-06
0.000120802
2.40995e-06
0.000120299
2.71684e-06
0.000119799
2.51948e-06
0.00011926
2.5492e-06
0.000118651
2.80238e-06
0.000117963
3.126e-06
0.000117187
3.49349e-06
0.000116314
3.92698e-06
0.000115331
4.43702e-06
0.000114223
5.02651e-06
0.000112979
5.70088e-06
0.000111582
6.469e-06
0.000110015
7.34141e-06
0.000108259
8.32875e-06
0.000106293
9.43885e-06
0.000104099
1.06689e-05
0.000101662
1.19905e-05
1.33296e-05
9.89771e-05
0.000121331
6.09514e-07
0.000121004
1.43637e-06
0.000120584
2.82968e-06
0.000120123
3.17827e-06
0.000119646
2.99613e-06
0.000119114
3.08122e-06
0.000118498
3.41851e-06
0.00011779
3.83381e-06
0.000116986
4.29829e-06
0.000116075
4.83715e-06
0.000115051
5.46195e-06
0.000113901
6.17591e-06
0.000112617
6.9854e-06
0.000111185
7.90063e-06
0.000109593
8.93358e-06
0.000107825
1.00963e-05
0.000105867
1.13974e-05
0.000103702
1.28338e-05
0.00010132
1.43721e-05
1.59308e-05
9.87192e-05
0.000121049
9.9861e-07
0.000120684
1.80165e-06
0.000120363
3.1504e-06
0.000119975
3.56656e-06
0.000119524
3.44706e-06
0.000118994
3.61175e-06
0.000118363
4.04936e-06
0.000117626
4.57045e-06
0.000116782
5.14231e-06
0.000115827
5.79257e-06
0.000114755
6.53409e-06
0.00011356
7.37064e-06
0.000112236
8.30952e-06
0.000110774
9.36215e-06
0.000109166
1.05416e-05
0.000107402
1.18609e-05
0.00010547
1.33293e-05
0.00010336
1.49433e-05
0.000101066
1.6666e-05
1.84119e-05
9.8585e-05
0.000120537
1.76767e-06
0.000120187
2.15259e-06
0.000120148
3.18856e-06
0.000119889
3.82636e-06
0.000119449
3.88626e-06
0.000118903
4.15845e-06
0.00011824
4.7122e-06
0.000117455
5.35502e-06
0.000116554
6.04355e-06
0.000115539
6.80783e-06
0.000114409
7.66388e-06
0.000113163
8.61686e-06
0.000111797
9.67514e-06
0.000110308
1.08511e-05
0.000108691
1.21586e-05
0.000106941
1.36109e-05
0.000105053
1.52178e-05
0.00010302
1.69759e-05
0.000100839
1.88475e-05
2.07506e-05
9.84999e-05
0.000119267
3.67796e-06
0.000119422
1.99822e-06
0.000120086
2.52376e-06
0.000119938
3.97499e-06
0.000119433
4.39101e-06
0.000118831
4.76076e-06
0.000118104
5.43881e-06
0.000117241
6.21829e-06
0.000116257
7.02705e-06
0.000115164
7.90112e-06
0.000113964
8.86381e-06
0.000112659
9.92248e-06
0.000111247
1.10863e-05
0.00010973
1.23682e-05
0.000108107
1.37817e-05
0.000106378
1.53398e-05
0.000104544
1.7052e-05
0.000102603
1.89164e-05
0.000100554
2.08968e-05
2.291e-05
9.83947e-05
0.000117073
7.74279e-06
0.000119341
-2.6979e-07
0.00012063
1.235e-06
0.000120195
4.41e-06
0.000119486
5.09953e-06
0.000118758
5.48851e-06
0.00011791
6.28712e-06
0.000116931
7.19739e-06
0.000115845
8.11344e-06
0.000114662
9.08376e-06
0.000113386
1.01398e-05
0.000112018
1.12905e-05
0.000110559
1.25447e-05
0.000109013
1.39146e-05
0.000107383
1.54122e-05
0.000105674
1.7048e-05
0.000103898
1.88286e-05
0.000102062
2.07525e-05
0.000100153
2.28054e-05
9.81521e-05
2.49111e-05
9.13555e-05
1.06941e-05
8.05127e-05
1.08428e-05
6.95051e-05
1.10076e-05
5.83252e-05
1.11799e-05
4.69839e-05
1.13413e-05
3.55504e-05
1.14335e-05
2.42376e-05
1.13128e-05
1.35715e-05
1.06661e-05
4.67789e-06
8.89362e-06
4.67789e-06
9.03667e-05
2.13113e-05
7.9597e-05
2.16125e-05
6.86676e-05
2.1937e-05
5.75733e-05
2.22741e-05
4.63289e-05
2.25857e-05
3.50083e-05
2.2754e-05
2.38268e-05
2.24943e-05
1.33082e-05
2.11847e-05
4.61536e-06
1.75864e-05
9.29325e-06
8.95373e-05
3.18653e-05
7.883e-05
3.23198e-05
6.79679e-05
3.27991e-05
5.69478e-05
3.32942e-05
4.57861e-05
3.37474e-05
3.45601e-05
3.39801e-05
2.34891e-05
3.35653e-05
1.31006e-05
3.15733e-05
4.53087e-06
2.61561e-05
1.38241e-05
8.89062e-05
4.23807e-05
7.82405e-05
4.29855e-05
6.74269e-05
4.36126e-05
5.64624e-05
4.42588e-05
4.53632e-05
4.48466e-05
3.42084e-05
4.51349e-05
2.32208e-05
4.45529e-05
1.29304e-05
4.18637e-05
4.46246e-06
3.4624e-05
1.82866e-05
8.84778e-05
5.28801e-05
7.78314e-05
5.36319e-05
6.70451e-05
5.43989e-05
5.6114e-05
5.51899e-05
4.50533e-05
5.59073e-05
3.39431e-05
5.62451e-05
2.30101e-05
5.54858e-05
1.27899e-05
5.20839e-05
4.40306e-06
4.30109e-05
2.26896e-05
8.82185e-05
6.33808e-05
7.75728e-05
6.42777e-05
6.67944e-05
6.51773e-05
5.58753e-05
6.6109e-05
4.48287e-05
6.69538e-05
3.37368e-05
6.7337e-05
2.28326e-05
6.639e-05
1.26606e-05
6.2256e-05
4.34305e-06
5.13284e-05
2.70327e-05
8.80689e-05
7.38969e-05
7.74089e-05
7.49377e-05
6.66223e-05
7.59639e-05
5.5695e-05
7.70363e-05
4.46396e-05
7.80092e-05
3.35429e-05
7.84337e-05
2.26479e-05
7.7285e-05
1.25133e-05
7.23907e-05
4.2678e-06
5.95738e-05
3.13005e-05
8.79486e-05
8.44483e-05
7.72593e-05
8.5627e-05
6.64501e-05
8.67731e-05
5.54955e-05
8.79909e-05
4.44115e-05
8.90932e-05
3.32934e-05
8.95518e-05
2.24001e-05
8.81783e-05
1.23092e-05
8.24815e-05
4.15818e-06
6.77249e-05
3.54587e-05
8.77404e-05
9.51025e-05
7.70027e-05
9.63648e-05
6.61543e-05
9.76215e-05
5.51562e-05
9.8989e-05
4.40348e-05
0.000100215
3.28966e-05
0.00010069
2.20192e-05
9.90557e-05
1.19998e-05
9.25009e-05
3.98747e-06
7.57372e-05
3.94461e-05
8.71845e-05
0.00010607
7.64138e-05
0.000107135
6.55116e-05
0.000108524
5.44775e-05
0.000110023
4.3346e-05
0.000111346
3.22286e-05
0.000111807
2.14157e-05
0.000109869
1.15167e-05
0.0001024
3.70218e-06
8.35517e-05
4.31483e-05
3.36706e-05
0.000111806
-3.94067e-05
2.79616e-05
0.000112845
2.23365e-05
0.000114149
1.68424e-05
0.000115517
1.16301e-05
0.000116558
6.96927e-06
0.000116468
3.2399e-06
0.000113598
8.37492e-07
0.000104802
-7.64805e-08
8.44656e-05
4.30718e-05
2.73845e-05
0.000116956
-3.25341e-05
2.22121e-05
0.000118017
1.71305e-05
0.00011923
1.22528e-05
0.000120395
7.74961e-06
0.000121062
3.89142e-06
0.000120326
1.02955e-06
0.00011646
-5.02743e-07
0.000106335
-6.3676e-07
8.45996e-05
4.24351e-05
2.11067e-05
0.000121553
-2.57039e-05
1.64937e-05
0.00012263
1.19992e-05
0.000123725
7.7671e-06
0.000124627
3.99433e-06
0.000124834
9.54451e-07
0.000123366
-1.02911e-06
0.000118443
-1.69105e-06
0.000106997
-1.07558e-06
8.39842e-05
4.13595e-05
1.49021e-05
0.000125608
-1.8957e-05
1.08678e-05
0.000126664
6.98814e-06
0.000127605
3.42885e-06
0.000128186
4.06535e-07
0.000127857
-1.80502e-06
0.000125578
-2.91368e-06
0.000119552
-2.72971e-06
0.000106813
-1.42634e-06
8.26808e-05
3.99331e-05
8.81925e-06
0.000129121
-1.2332e-05
5.37288e-06
0.00013011
2.12868e-06
0.000130849
-7.33899e-07
0.000131049
-2.98737e-06
0.00013011
-4.36511e-06
0.000126956
-4.61364e-06
0.000119801
-3.62582e-06
0.000105825
-1.70478e-06
8.07598e-05
3.82284e-05
2.88975e-06
0.000132089
-5.85839e-06
3.885e-08
0.000132961
-2.55379e-06
0.000133441
-4.70049e-06
0.000133196
-6.17118e-06
0.000131581
-6.71524e-06
0.0001275
-6.12644e-06
0.000119212
-4.38564e-06
0.000104084
-1.91956e-06
7.82937e-05
3.63088e-05
-2.86522e-06
0.00013451
4.45104e-07
-5.11254e-06
0.000135209
-7.03963e-06
0.000135369
-8.45494e-06
0.000134611
-9.13364e-06
0.00013226
-8.85008e-06
0.000127216
-7.45371e-06
0.000117815
-5.0167e-06
0.000101647
-2.07895e-06
7.53559e-05
3.42299e-05
-8.4337e-06
0.000136374
6.56875e-06
-1.00671e-05
0.000136842
-1.13146e-05
0.000136616
-1.19849e-05
0.000135281
-1.18658e-05
0.00013214
-1.07659e-05
0.000126116
-8.598e-06
0.000115647
-5.52659e-06
9.85756e-05
-2.19036e-06
7.20197e-05
3.20395e-05
-1.38094e-05
0.000137675
1.25085e-05
-1.48147e-05
0.000137847
-1.53649e-05
0.000137166
-1.52748e-05
0.000135191
-1.43532e-05
0.000131219
-1.24527e-05
0.000124216
-9.55755e-06
0.000112752
-5.92187e-06
9.494e-05
-2.26156e-06
6.83594e-05
2.97779e-05
-1.89831e-05
1.82697e-05
0.000138389
-1.9329e-05
0.000138193
-1.91502e-05
0.000136987
-1.82765e-05
0.000134317
-1.65496e-05
0.000129492
-1.3878e-05
0.000121544
-1.03216e-05
0.000109196
-6.21236e-06
9.08307e-05
-2.30995e-06
6.4457e-05
2.7468e-05
8.61087e-05
-4.00064e-05
-8.5509e-05
8.69355e-05
-3.33609e-05
8.79626e-05
-2.67311e-05
8.91328e-05
-2.01272e-05
9.04049e-05
-1.36041e-05
9.17314e-05
-7.1849e-06
9.30614e-05
-8.84906e-07
9.43443e-05
5.28589e-06
9.55323e-05
1.13204e-05
1.72315e-05
9.65706e-05
8.69271e-05
-4.04252e-05
-8.65083e-05
8.75365e-05
-3.39703e-05
8.83462e-05
-2.75408e-05
8.93136e-05
-2.10946e-05
9.0401e-05
-1.46915e-05
9.15676e-05
-8.35158e-06
9.27702e-05
-2.08749e-06
9.39653e-05
4.09076e-06
9.51114e-05
1.01743e-05
1.618e-05
9.61629e-05
8.76143e-05
-4.06328e-05
-8.74067e-05
8.80312e-05
-3.43872e-05
8.86433e-05
-2.81529e-05
8.94208e-05
-2.18721e-05
9.03315e-05
-1.56021e-05
9.13412e-05
-9.36127e-06
9.2414e-05
-3.16027e-06
9.35138e-05
2.99096e-06
9.46053e-05
9.08276e-06
1.51327e-05
9.56526e-05
8.82011e-05
-4.06843e-05
-8.81495e-05
8.8452e-05
-3.46381e-05
8.88884e-05
-2.85893e-05
8.94907e-05
-2.24744e-05
9.02337e-05
-1.63452e-05
9.10906e-05
-1.02181e-05
9.20327e-05
-4.10237e-06
9.3031e-05
1.99264e-06
9.40566e-05
8.05719e-06
1.41082e-05
9.50811e-05
8.86815e-05
-4.06117e-05
-8.87542e-05
8.87934e-05
-3.475e-05
8.90781e-05
-2.8874e-05
8.95246e-05
-2.29209e-05
9.01148e-05
-1.69354e-05
9.08287e-05
-1.0932e-05
9.16445e-05
-4.91817e-06
9.25398e-05
1.0973e-06
9.34917e-05
7.10529e-06
1.31217e-05
9.44782e-05
8.90572e-05
-4.04308e-05
-8.92381e-05
8.90497e-05
-3.47425e-05
8.92045e-05
-2.90288e-05
8.9516e-05
-2.32324e-05
8.99715e-05
-1.73909e-05
9.05565e-05
-1.1517e-05
9.12553e-05
-5.61694e-06
9.20511e-05
3.01464e-07
9.29265e-05
6.22993e-06
1.21835e-05
9.38647e-05
8.93375e-05
-4.01537e-05
-8.96147e-05
8.92259e-05
-3.46309e-05
8.9269e-05
-2.9072e-05
8.94642e-05
-2.34275e-05
8.98026e-05
-1.77293e-05
9.02739e-05
-1.19884e-05
9.0867e-05
-6.21001e-06
9.15699e-05
-4.01396e-07
9.23696e-05
5.43021e-06
1.12991e-05
9.3254e-05
8.95341e-05
-3.97909e-05
-8.98969e-05
8.93309e-05
-3.44277e-05
8.92774e-05
-2.90184e-05
8.93722e-05
-2.35224e-05
8.96093e-05
-1.79664e-05
8.99812e-05
-1.23603e-05
9.04802e-05
-6.70903e-06
9.1098e-05
-1.01921e-06
9.18254e-05
4.70278e-06
1.04705e-05
9.2654e-05
8.96585e-05
-3.93519e-05
-9.00975e-05
8.93747e-05
-3.41439e-05
8.92369e-05
-2.88807e-05
8.92448e-05
-2.35303e-05
8.93939e-05
-1.81155e-05
8.96791e-05
-1.26454e-05
9.0095e-05
-7.12495e-06
9.06361e-05
-1.56026e-06
9.1296e-05
4.04289e-06
9.69738e-06
9.20691e-05
8.9722e-05
-3.88453e-05
-9.02286e-05
8.93668e-05
-3.37886e-05
8.91552e-05
-2.86691e-05
8.90872e-05
-2.34623e-05
8.91598e-05
-1.8188e-05
8.93692e-05
-1.28548e-05
8.97118e-05
-7.4676e-06
9.0184e-05
-2.0325e-06
9.07817e-05
3.4452e-06
8.97762e-06
9.15015e-05
8.97346e-05
-3.82785e-05
-9.03014e-05
8.93161e-05
-3.33702e-05
8.90395e-05
-2.83925e-05
8.8905e-05
-2.33278e-05
8.89104e-05
-1.81935e-05
8.90533e-05
-1.29976e-05
8.93312e-05
-7.74553e-06
8.97419e-05
-2.4432e-06
9.02828e-05
2.90431e-06
8.30831e-06
9.09521e-05
8.97055e-05
-3.76581e-05
-9.03258e-05
8.92308e-05
-3.28955e-05
8.88965e-05
-2.80582e-05
8.87032e-05
-2.31345e-05
8.86495e-05
-1.81398e-05
8.87337e-05
-1.30818e-05
8.89542e-05
-7.96607e-06
8.93098e-05
-2.7988e-06
8.9799e-05
2.41514e-06
7.68615e-06
9.04211e-05
8.96427e-05
-3.69901e-05
-9.03108e-05
8.91179e-05
-3.23706e-05
8.87323e-05
-2.76726e-05
8.84869e-05
-2.2889e-05
8.83806e-05
-1.80335e-05
8.84126e-05
-1.31137e-05
8.85819e-05
-8.13543e-06
8.8888e-05
-3.10489e-06
8.93302e-05
1.97303e-06
7.10778e-06
8.99085e-05
8.95531e-05
-3.62794e-05
-9.02637e-05
8.89834e-05
-3.1801e-05
8.85521e-05
-2.72413e-05
8.826e-05
-2.2597e-05
8.81069e-05
-1.78804e-05
8.80922e-05
-1.3099e-05
8.82157e-05
-8.2589e-06
8.84771e-05
-3.36631e-06
8.88764e-05
1.57381e-06
6.56998e-06
8.94142e-05
8.94424e-05
-3.55305e-05
-9.01913e-05
8.88326e-05
-3.11912e-05
8.83602e-05
-2.67689e-05
8.80264e-05
-2.22631e-05
8.78312e-05
-1.76853e-05
8.77746e-05
-1.30425e-05
8.78567e-05
-8.34098e-06
8.80776e-05
-3.58724e-06
8.84376e-05
1.2138e-06
6.06975e-06
8.89379e-05
8.93156e-05
-3.47472e-05
-9.00989e-05
8.86698e-05
-3.05454e-05
8.81604e-05
-2.62595e-05
8.7789e-05
-2.18917e-05
8.75559e-05
-1.74522e-05
8.74614e-05
-1.2948e-05
8.7506e-05
-8.38555e-06
8.76901e-05
-3.7713e-06
8.80141e-05
8.89764e-07
5.60434e-06
8.84795e-05
8.91768e-05
-3.3933e-05
-8.9991e-05
8.84984e-05
-2.98671e-05
8.79558e-05
-2.57169e-05
8.75504e-05
-2.14863e-05
8.7283e-05
-1.71848e-05
8.71542e-05
-1.28192e-05
8.71646e-05
-8.39598e-06
8.73149e-05
-3.92164e-06
8.76059e-05
5.98824e-07
5.17126e-06
8.8039e-05
8.90293e-05
-3.30908e-05
-8.98715e-05
8.83216e-05
-2.91594e-05
8.77488e-05
-2.51441e-05
8.73126e-05
-2.10501e-05
8.70141e-05
-1.68862e-05
8.6854e-05
-1.26591e-05
8.68333e-05
-8.37522e-06
8.69527e-05
-4.04103e-06
8.72131e-05
3.3843e-07
4.76823e-06
8.76161e-05
8.88759e-05
-3.22234e-05
-8.97433e-05
8.81416e-05
-2.84251e-05
8.75416e-05
-2.45441e-05
8.70775e-05
-2.0586e-05
8.67506e-05
-1.65593e-05
8.6562e-05
-1.24705e-05
8.65126e-05
-8.32588e-06
8.66035e-05
-4.13195e-06
8.68357e-05
1.06296e-07
4.39319e-06
8.72107e-05
8.87188e-05
-3.1333e-05
-8.96092e-05
8.79605e-05
-2.76669e-05
8.73357e-05
-2.39192e-05
8.68462e-05
-2.00965e-05
8.64935e-05
-1.62066e-05
8.62787e-05
-1.22557e-05
8.62031e-05
-8.2503e-06
8.62678e-05
-4.19659e-06
8.64737e-05
-9.96412e-08
4.04425e-06
8.68227e-05
8.856e-05
-3.04219e-05
-8.94711e-05
8.77799e-05
-2.68868e-05
8.71326e-05
-2.32719e-05
8.66199e-05
-1.95839e-05
8.62436e-05
-1.58302e-05
8.60049e-05
-1.20171e-05
8.59052e-05
-8.15055e-06
8.59455e-05
-4.23697e-06
8.61272e-05
-2.81258e-07
3.71967e-06
8.64517e-05
8.8401e-05
-2.9492e-05
-8.93309e-05
8.76011e-05
-2.60869e-05
8.69333e-05
-2.2604e-05
8.63995e-05
-1.90501e-05
8.60016e-05
-1.54323e-05
8.57409e-05
-1.17564e-05
8.56189e-05
-8.02855e-06
8.56368e-05
-4.25488e-06
8.57958e-05
-4.4027e-07
3.41784e-06
8.60977e-05
8.82431e-05
-2.8545e-05
-8.91901e-05
8.74252e-05
-2.52691e-05
8.67387e-05
-2.19175e-05
8.61857e-05
-1.84971e-05
8.57679e-05
-1.50145e-05
8.5487e-05
-1.14755e-05
8.53445e-05
-7.88601e-06
8.53416e-05
-4.25199e-06
8.54796e-05
-5.78256e-07
3.13726e-06
8.57602e-05
8.80873e-05
-2.75825e-05
-8.90498e-05
8.72531e-05
-2.44349e-05
8.65495e-05
-2.12139e-05
8.59788e-05
-1.79264e-05
8.55429e-05
-1.45786e-05
8.52434e-05
-1.1176e-05
8.50819e-05
-7.72451e-06
8.50598e-05
-4.22982e-06
8.51782e-05
-6.96679e-07
2.87655e-06
8.54389e-05
8.79345e-05
-2.66059e-05
-8.89111e-05
8.70854e-05
-2.35858e-05
8.63663e-05
-2.04948e-05
8.57795e-05
-1.73396e-05
8.53269e-05
-1.4126e-05
8.50103e-05
-1.08594e-05
8.48313e-05
-7.54547e-06
8.47912e-05
-4.18976e-06
8.48914e-05
-7.96889e-07
2.63439e-06
8.51336e-05
8.77854e-05
-2.56164e-05
-8.87749e-05
8.69228e-05
-2.27231e-05
8.61895e-05
-1.97615e-05
8.55879e-05
-1.6738e-05
8.512e-05
-1.36581e-05
8.47876e-05
-1.0527e-05
8.45924e-05
-7.35024e-06
8.45357e-05
-4.13311e-06
8.4619e-05
-8.80144e-07
2.40958e-06
8.48438e-05
8.76407e-05
-2.46153e-05
-8.86418e-05
8.67657e-05
-2.18481e-05
8.60194e-05
-1.90153e-05
8.54043e-05
-1.61228e-05
8.49223e-05
-1.31761e-05
8.45753e-05
-1.01801e-05
8.43651e-05
-7.14001e-06
8.42931e-05
-4.06106e-06
8.43605e-05
-9.47613e-07
2.20096e-06
8.45692e-05
8.75008e-05
-2.36036e-05
-8.85125e-05
8.66145e-05
-2.09619e-05
8.58564e-05
-1.82571e-05
8.52288e-05
-1.54953e-05
8.47339e-05
-1.26812e-05
8.43735e-05
-9.81975e-06
8.41494e-05
-6.91591e-06
8.40631e-05
-3.97472e-06
8.41159e-05
-1.00039e-06
2.00745e-06
8.43094e-05
8.73661e-05
-2.25823e-05
-8.83874e-05
8.64695e-05
-2.00653e-05
8.57006e-05
-1.74882e-05
8.50616e-05
-1.48563e-05
8.45548e-05
-1.21744e-05
8.4182e-05
-9.44701e-06
8.39451e-05
-6.67899e-06
8.38455e-05
-3.87513e-06
8.38846e-05
-1.0395e-06
1.82805e-06
8.4064e-05
8.72369e-05
-2.15522e-05
-8.8267e-05
8.63311e-05
-1.91595e-05
8.55522e-05
-1.67093e-05
8.49027e-05
-1.42068e-05
8.4385e-05
-1.16566e-05
8.40008e-05
-9.06284e-06
8.3752e-05
-6.43018e-06
8.36401e-05
-3.76323e-06
8.36665e-05
-1.06589e-06
1.66181e-06
8.38327e-05
8.71136e-05
-2.05142e-05
-8.81517e-05
8.61992e-05
-1.8245e-05
8.54113e-05
-1.59213e-05
8.47522e-05
-1.35478e-05
8.42244e-05
-1.11287e-05
8.38297e-05
-8.66813e-06
8.35699e-05
-6.1704e-06
8.34466e-05
-3.63993e-06
8.34611e-05
-1.08045e-06
1.50782e-06
8.36151e-05
8.69964e-05
-1.94689e-05
-8.80417e-05
8.60742e-05
-1.73228e-05
8.52779e-05
-1.51251e-05
8.46101e-05
-1.288e-05
8.4073e-05
-1.05916e-05
8.36685e-05
-8.26369e-06
8.33986e-05
-5.90045e-06
8.32647e-05
-3.50604e-06
8.32683e-05
-1.08403e-06
1.36525e-06
8.34109e-05
8.68853e-05
-1.8417e-05
-8.79372e-05
8.59561e-05
-1.63936e-05
8.51522e-05
-1.43213e-05
8.44764e-05
-1.22041e-05
8.39307e-05
-1.00459e-05
8.35173e-05
-7.85028e-06
8.32379e-05
-5.62111e-06
8.30943e-05
-3.36236e-06
8.30876e-05
-1.07741e-06
1.23329e-06
8.32196e-05
8.67806e-05
-1.73592e-05
-8.78384e-05
8.58449e-05
-1.54579e-05
8.50342e-05
-1.35105e-05
8.43509e-05
-1.15209e-05
8.37974e-05
-9.49241e-06
8.33757e-05
-7.42861e-06
8.30877e-05
-5.3331e-06
8.2935e-05
-3.2096e-06
8.29189e-05
-1.06134e-06
1.11119e-06
8.3041e-05
8.66824e-05
-1.62961e-05
-8.77456e-05
8.57408e-05
-1.45163e-05
8.49238e-05
-1.26934e-05
8.42337e-05
-1.08308e-05
8.3673e-05
-8.93172e-06
8.32437e-05
-6.99933e-06
8.29477e-05
-5.03708e-06
8.27866e-05
-3.04846e-06
8.27617e-05
-1.0365e-06
9.98239e-07
8.28747e-05
8.65906e-05
-1.5228e-05
-8.76587e-05
8.56438e-05
-1.35695e-05
8.48209e-05
-1.18706e-05
8.41247e-05
-1.01346e-05
8.35574e-05
-8.36442e-06
8.31212e-05
-6.56306e-06
8.28178e-05
-4.73369e-06
8.26489e-05
-2.87958e-06
8.26159e-05
-1.00355e-06
8.93756e-07
8.27204e-05
8.65054e-05
-1.41556e-05
-8.75778e-05
8.55538e-05
-1.26178e-05
8.47257e-05
-1.10426e-05
8.40239e-05
-9.43274e-06
8.34505e-05
-7.79109e-06
8.30078e-05
-6.12037e-06
8.26977e-05
-4.42351e-06
8.25216e-05
-2.70356e-06
8.24812e-05
-9.63138e-07
7.971e-07
8.25779e-05
8.64268e-05
-1.30793e-05
-8.75031e-05
8.54708e-05
-1.16618e-05
8.4638e-05
-1.02098e-05
8.3931e-05
-8.72575e-06
8.33522e-05
-7.21225e-06
8.29036e-05
-5.6718e-06
8.25872e-05
-4.10712e-06
8.24046e-05
-2.52098e-06
8.23573e-05
-9.15838e-07
7.07654e-07
8.24468e-05
8.63547e-05
-1.19995e-05
-8.74345e-05
8.53948e-05
-1.07019e-05
8.45577e-05
-9.37269e-06
8.38461e-05
-8.01411e-06
8.32622e-05
-6.6284e-06
8.28083e-05
-5.21788e-06
8.24862e-05
-3.78503e-06
8.22976e-05
-2.33239e-06
8.2244e-05
-8.62223e-07
6.24832e-07
8.23268e-05
8.62891e-05
-1.09165e-05
-8.7372e-05
8.53257e-05
-9.73852e-06
8.44848e-05
-8.53178e-06
8.37689e-05
-7.29827e-06
8.31806e-05
-6.04e-06
8.27218e-05
-4.75909e-06
8.23945e-05
-3.45775e-06
8.22004e-05
-2.13831e-06
8.2141e-05
-8.02832e-07
5.48069e-07
8.22178e-05
8.62299e-05
-9.83082e-06
-8.73156e-05
8.52634e-05
-8.77208e-06
8.44191e-05
-7.68746e-06
8.36995e-05
-6.57867e-06
8.3107e-05
-5.44753e-06
8.26438e-05
-4.29589e-06
8.23119e-05
-3.12577e-06
8.21128e-05
-1.93925e-06
8.20482e-05
-7.38189e-07
4.76824e-07
8.21194e-05
8.6177e-05
-8.74279e-06
-8.72651e-05
8.52079e-05
-7.80297e-06
8.43606e-05
-6.84013e-06
8.36377e-05
-5.85575e-06
8.30415e-05
-4.8514e-06
8.25744e-05
-3.82875e-06
8.22382e-05
-2.78956e-06
8.20346e-05
-1.73569e-06
8.19652e-05
-6.68798e-07
4.10569e-07
8.20315e-05
8.61304e-05
-7.65279e-06
-8.72204e-05
8.5159e-05
-6.83159e-06
8.43091e-05
-5.9902e-06
8.35833e-05
-5.1299e-06
8.29839e-05
-4.25205e-06
8.25133e-05
-3.35809e-06
8.21733e-05
-2.44957e-06
8.19657e-05
-1.5281e-06
8.1892e-05
-5.95144e-07
3.48794e-07
8.19538e-05
8.609e-05
-6.56122e-06
-8.71815e-05
8.51167e-05
-5.85831e-06
8.42645e-05
-5.13807e-06
8.35362e-05
-4.40155e-06
8.2934e-05
-3.6499e-06
8.24603e-05
-2.88435e-06
8.2117e-05
-2.10624e-06
8.19058e-05
-1.31694e-06
8.18284e-05
-5.17706e-07
2.90997e-07
8.18861e-05
8.60555e-05
-5.46846e-06
-8.71483e-05
8.50808e-05
-4.88354e-06
8.42268e-05
-4.28413e-06
8.34964e-05
-3.67107e-06
8.28918e-05
-3.04534e-06
8.24154e-05
-2.40794e-06
8.20691e-05
-1.75999e-06
8.18548e-05
-1.10264e-06
8.17741e-05
-4.36953e-07
2.36686e-07
8.18284e-05
8.60271e-05
-4.37491e-06
-8.71207e-05
8.50512e-05
-3.90766e-06
8.41959e-05
-3.42875e-06
8.34636e-05
-2.93886e-06
8.28571e-05
-2.43876e-06
8.23784e-05
-1.92926e-06
8.20296e-05
-1.41125e-06
8.18127e-05
-8.85666e-07
8.17291e-05
-3.53351e-07
1.85368e-07
8.17804e-05
8.60046e-05
-3.28094e-06
-8.70986e-05
8.5028e-05
-2.93103e-06
8.41715e-05
-2.57231e-06
8.3438e-05
-2.20529e-06
8.28297e-05
-1.83055e-06
8.23492e-05
-1.44871e-06
8.19984e-05
-1.06044e-06
8.17792e-05
-6.66451e-07
8.16932e-05
-2.67368e-07
1.36551e-07
8.1742e-05
8.5988e-05
-2.18693e-06
-8.7082e-05
8.50109e-05
-1.954e-06
8.41538e-05
-1.71515e-06
8.34192e-05
-1.47071e-06
8.28097e-05
-1.22109e-06
8.23277e-05
-9.66701e-07
8.19753e-05
-7.07998e-07
8.17543e-05
-4.4545e-07
8.16664e-05
-1.7948e-07
8.97301e-08
8.17132e-05
8.59771e-05
-1.09319e-06
-8.70709e-05
8.5e-05
-9.76901e-07
8.41425e-05
-8.57603e-07
8.34073e-05
-7.35489e-07
8.27969e-05
-6.10767e-07
8.23139e-05
-4.83648e-07
8.19602e-05
-3.54358e-07
8.17379e-05
-2.23132e-07
8.16486e-05
-9.01827e-08
4.4392e-08
8.1694e-05
8.5972e-05
-8.70652e-05
8.49951e-05
8.41375e-05
8.3402e-05
8.27913e-05
8.23076e-05
8.19533e-05
8.17301e-05
8.16399e-05
8.16843e-05
8.64139e-05
4.94833e-06
8.49455e-05
1.19863e-06
8.42462e-05
1.93426e-06
8.45175e-05
4.13866e-06
8.45965e-05
5.02057e-06
8.4479e-05
5.60599e-06
8.43507e-05
6.41542e-06
8.42319e-05
7.31622e-06
8.41049e-05
8.24045e-06
8.39721e-05
9.21656e-06
8.3844e-05
1.02679e-05
8.37306e-05
1.14039e-05
8.36424e-05
1.26329e-05
8.35925e-05
1.39646e-05
8.35964e-05
1.54083e-05
8.36733e-05
1.69711e-05
8.3847e-05
1.86549e-05
8.41503e-05
2.04492e-05
8.46511e-05
2.23045e-05
2.40532e-05
8.5975e-05
2.71288e-06
8.51934e-05
1.98023e-06
8.45969e-05
2.53076e-06
8.46964e-05
4.03921e-06
8.474e-05
4.97697e-06
8.46548e-05
5.6912e-06
8.45603e-05
6.50994e-06
8.44769e-05
7.39955e-06
8.43942e-05
8.32321e-06
8.43143e-05
9.29646e-06
8.42462e-05
1.0336e-05
8.41996e-05
1.14505e-05
8.41851e-05
1.26474e-05
8.42156e-05
1.39341e-05
8.4307e-05
1.53169e-05
8.44785e-05
1.67995e-05
8.47542e-05
1.83793e-05
8.51639e-05
2.00394e-05
8.57444e-05
2.17241e-05
2.32893e-05
8.48546e-05
1.647e-06
8.48106e-05
2.0242e-06
8.45809e-05
2.76048e-06
8.46513e-05
3.96876e-06
8.47182e-05
4.9101e-06
8.47031e-05
5.70624e-06
8.46682e-05
6.54484e-06
8.46363e-05
7.43153e-06
8.46068e-05
8.35267e-06
8.45843e-05
9.31899e-06
8.45774e-05
1.03429e-05
8.45958e-05
1.14321e-05
8.46503e-05
1.25929e-05
8.47536e-05
1.38308e-05
8.4921e-05
1.51496e-05
8.51702e-05
1.65503e-05
8.55221e-05
1.80273e-05
8.59996e-05
1.9562e-05
8.66231e-05
2.11005e-05
2.25057e-05
8.43265e-05
1.13552e-06
8.44148e-05
1.93585e-06
8.43925e-05
2.7828e-06
8.45054e-05
3.85583e-06
8.46137e-05
4.8018e-06
8.46665e-05
5.65351e-06
8.46964e-05
6.51488e-06
8.47228e-05
7.40518e-06
8.47508e-05
8.32463e-06
8.47872e-05
9.28263e-06
8.48409e-05
1.02892e-05
8.49217e-05
1.13513e-05
8.50405e-05
1.24741e-05
8.52094e-05
1.36618e-05
8.54427e-05
1.49163e-05
8.57564e-05
1.62366e-05
8.61681e-05
1.76157e-05
8.66958e-05
1.90343e-05
8.73541e-05
2.04422e-05
2.17103e-05
8.40588e-05
9.10303e-07
8.41553e-05
1.83935e-06
8.42199e-05
2.71817e-06
8.43538e-05
3.72185e-06
8.4489e-05
4.6666e-06
8.45924e-05
5.55017e-06
8.46779e-05
6.42942e-06
8.47585e-05
7.32454e-06
8.48412e-05
8.24191e-06
8.49334e-05
9.19039e-06
8.50441e-05
1.01785e-05
8.51828e-05
1.12126e-05
8.53599e-05
1.2297e-05
8.55872e-05
1.34346e-05
8.58774e-05
1.46261e-05
8.62447e-05
1.58693e-05
8.6704e-05
1.71563e-05
8.72698e-05
1.84685e-05
8.79526e-05
1.97593e-05
2.09088e-05
8.39398e-05
8.19399e-07
8.40151e-05
1.76408e-06
8.41023e-05
2.63101e-06
8.42365e-05
3.58756e-06
8.43819e-05
4.52122e-06
8.45158e-05
5.41631e-06
8.46414e-05
6.30383e-06
8.47659e-05
7.19998e-06
8.48954e-05
8.11245e-06
8.50366e-05
9.04919e-06
8.51977e-05
1.00175e-05
8.53876e-05
1.10227e-05
8.5616e-05
1.20685e-05
8.58936e-05
1.3157e-05
8.62319e-05
1.42878e-05
8.66432e-05
1.5458e-05
8.71401e-05
1.66594e-05
8.77343e-05
1.78744e-05
8.84336e-05
1.906e-05
2.01043e-05
8.38988e-05
7.83793e-07
8.39532e-05
1.70966e-06
8.40376e-05
2.54667e-06
8.41623e-05
3.46286e-06
8.43067e-05
4.37677e-06
8.44553e-05
5.26777e-06
8.46062e-05
6.15285e-06
8.47627e-05
7.04352e-06
8.49287e-05
7.94641e-06
8.51099e-05
8.86803e-06
8.53131e-05
9.81429e-06
8.55462e-05
1.07896e-05
8.58178e-05
1.17969e-05
8.61374e-05
1.28373e-05
8.65152e-05
1.391e-05
8.69618e-05
1.50114e-05
8.74876e-05
1.61336e-05
8.81021e-05
1.72599e-05
8.88115e-05
1.83506e-05
1.93011e-05
8.38936e-05
7.67414e-07
8.39359e-05
1.66742e-06
8.40119e-05
2.47062e-06
8.4125e-05
3.34974e-06
8.42635e-05
4.23831e-06
8.44169e-05
5.11437e-06
8.45821e-05
5.98763e-06
8.47598e-05
6.86582e-06
8.49525e-05
7.75374e-06
8.51643e-05
8.65626e-06
8.54007e-05
9.57787e-06
8.56684e-05
1.05219e-05
8.59749e-05
1.14905e-05
8.63282e-05
1.24839e-05
8.67372e-05
1.3501e-05
8.72108e-05
1.45378e-05
8.77578e-05
1.55867e-05
8.83857e-05
1.66319e-05
8.90995e-05
1.76369e-05
1.85037e-05
8.39033e-05
7.55346e-07
8.39409e-05
1.62981e-06
8.40104e-05
2.40111e-06
8.41141e-05
3.24608e-06
8.42458e-05
4.10657e-06
8.43993e-05
4.9609e-06
8.45716e-05
5.81531e-06
8.47625e-05
6.67493e-06
8.49734e-05
7.54284e-06
8.52073e-05
8.42232e-06
8.54687e-05
9.31654e-06
8.57628e-05
1.02278e-05
8.6096e-05
1.11573e-05
8.64751e-05
1.21048e-05
8.69075e-05
1.30686e-05
8.74007e-05
1.40447e-05
8.79618e-05
1.50256e-05
8.8597e-05
1.59967e-05
8.93099e-05
1.6924e-05
1.77161e-05
8.39183e-05
7.42181e-07
8.39557e-05
1.59234e-06
8.40218e-05
2.33501e-06
8.41194e-05
3.14856e-06
8.42458e-05
3.9801e-06
8.43978e-05
4.80896e-06
8.45732e-05
5.63984e-06
8.47719e-05
6.4763e-06
8.49946e-05
7.32007e-06
8.52438e-05
8.17316e-06
8.55228e-05
9.03755e-06
8.5836e-05
9.9146e-06
8.61885e-05
1.08047e-05
8.65861e-05
1.17072e-05
8.70348e-05
1.26199e-05
8.75408e-05
1.35387e-05
8.81098e-05
1.44565e-05
8.87469e-05
1.53596e-05
8.94543e-05
1.62165e-05
1.69418e-05
8.39345e-05
7.26515e-07
8.39738e-05
1.553e-06
8.4039e-05
2.26979e-06
8.41334e-05
3.05419e-06
8.42566e-05
3.85692e-06
8.4407e-05
4.65851e-06
8.45838e-05
5.46308e-06
8.47868e-05
6.2733e-06
8.50169e-05
7.08995e-06
8.5276e-05
7.91408e-06
8.55668e-05
8.74676e-06
8.58928e-05
9.58854e-06
8.62584e-05
1.04392e-05
8.6668e-05
1.12975e-05
8.71268e-05
1.21611e-05
8.76397e-05
1.30259e-05
8.82112e-05
1.38849e-05
8.88454e-05
1.47255e-05
8.95435e-05
1.55184e-05
1.61839e-05
8.39503e-05
7.08442e-07
8.39921e-05
1.5112e-06
8.40579e-05
2.20393e-06
8.41513e-05
2.96082e-06
8.42729e-05
3.73529e-06
8.44225e-05
4.50896e-06
8.45998e-05
5.28578e-06
8.48052e-05
6.0679e-06
8.50396e-05
6.85552e-06
8.53047e-05
7.649e-06
8.56027e-05
8.44872e-06
8.59367e-05
9.2546e-06
8.631e-05
1.00659e-05
8.67264e-05
1.08811e-05
8.71899e-05
1.16976e-05
8.77046e-05
1.25112e-05
8.82741e-05
1.33154e-05
8.89012e-05
1.40984e-05
8.95867e-05
1.4833e-05
1.54447e-05
8.39652e-05
6.88486e-07
8.40094e-05
1.46707e-06
8.40765e-05
2.13674e-06
8.41701e-05
2.86722e-06
8.42914e-05
3.61401e-06
8.44407e-05
4.35971e-06
8.46183e-05
5.10818e-06
8.48249e-05
5.86128e-06
8.50616e-05
6.61882e-06
8.53299e-05
7.38072e-06
8.56318e-05
8.14684e-06
8.59697e-05
8.91667e-06
8.63465e-05
9.6891e-06
8.67653e-05
1.04623e-05
8.72293e-05
1.12336e-05
8.77417e-05
1.19988e-05
8.83053e-05
1.27518e-05
8.89222e-05
1.34815e-05
8.95923e-05
1.41628e-05
1.47263e-05
8.39793e-05
6.67193e-07
8.40253e-05
1.42105e-06
8.40939e-05
2.06811e-06
8.41883e-05
2.77282e-06
8.43099e-05
3.49244e-06
8.44592e-05
4.21039e-06
8.4637e-05
4.93041e-06
8.48441e-05
5.65417e-06
8.50817e-05
6.38125e-06
8.53512e-05
7.11123e-06
8.56543e-05
7.84366e-06
8.59933e-05
8.5777e-06
8.63704e-05
9.31199e-06
8.67882e-05
1.00445e-05
8.72493e-05
1.07725e-05
8.77561e-05
1.1492e-05
8.83108e-05
1.21971e-05
8.89147e-05
1.28776e-05
8.95675e-05
1.35101e-05
1.403e-05
8.39925e-05
6.45011e-07
8.40399e-05
1.37362e-06
8.41098e-05
1.99822e-06
8.42051e-05
2.67753e-06
8.43272e-05
3.37039e-06
8.44767e-05
4.0609e-06
8.46544e-05
4.75265e-06
8.48615e-05
5.44715e-06
8.50989e-05
6.14381e-06
8.53681e-05
6.84202e-06
8.56707e-05
7.54107e-06
8.60085e-05
8.23993e-06
8.63834e-05
8.93705e-06
8.67976e-05
9.63036e-06
8.7253e-05
1.0317e-05
8.77517e-05
1.09933e-05
8.82951e-05
1.16537e-05
8.88842e-05
1.22885e-05
8.95181e-05
1.28762e-05
1.33568e-05
8.4005e-05
6.22277e-07
8.40534e-05
1.32523e-06
8.41242e-05
1.92737e-06
8.42202e-05