/*--------------------------------*- C++ -*----------------------------------*\
  =========                 |
  \\      /  F ield         | OpenFOAM: The Open Source CFD Toolbox
   \\    /   O peration     | Website:  https://openfoam.org
    \\  /    A nd           | Version:  6
     \\/     M anipulation  |
\*---------------------------------------------------------------------------*/
FoamFile
{
    version     2.0;
    format      ascii;
    class       surfaceScalarField;
    location    "0.9";
    object      phi;
}
// * * * * * * * * * * * * * * * * * * * * * * * * * * * * * * * * * * * * * //

dimensions      [0 3 -1 0 0 0 0];

internalField   nonuniform List<scalar> 
11030
(
0.000117573
2.58611e-07
0.000117674
-1.01666e-07
0.000117563
1.11181e-07
0.000117229
3.34359e-07
0.000116898
3.30589e-07
0.000116573
3.2508e-07
0.000116194
3.79491e-07
0.000115738
4.5564e-07
0.000115201
5.37136e-07
0.000114573
6.28161e-07
0.00011384
7.3284e-07
0.000112987
8.52575e-07
0.000111999
9.88752e-07
0.000110855
1.1435e-06
0.000109536
1.31936e-06
0.000108017
1.51884e-06
0.000106273
1.74374e-06
0.00010428
1.99351e-06
0.000102017
2.26213e-06
2.52856e-06
9.94889e-05
0.000118142
-6.27445e-08
0.000117899
1.41723e-07
0.000117487
5.22537e-07
0.00011714
6.82085e-07
0.000116799
6.71142e-07
0.000116414
7.10655e-07
0.000115968
8.24876e-07
0.000115455
9.68678e-07
0.000114863
1.12906e-06
0.000114179
1.31238e-06
0.000113388
1.52358e-06
0.000112476
1.76507e-06
0.000111425
2.03986e-06
0.000110216
2.35216e-06
0.000108829
2.70686e-06
0.000107239
3.10881e-06
0.000105421
3.56142e-06
0.000103351
4.06342e-06
0.00010101
4.60265e-06
5.14144e-06
9.83976e-05
0.000117848
-1.35705e-07
0.000117738
2.51322e-07
0.000117413
8.47464e-07
0.000117035
1.06064e-06
0.000116649
1.05672e-06
0.000116224
1.1362e-06
0.000115735
1.3137e-06
0.000115173
1.53008e-06
0.00011453
1.77258e-06
0.000113792
2.05056e-06
0.000112945
2.37035e-06
0.000111975
2.73535e-06
0.000110864
3.15008e-06
0.000109596
3.62074e-06
0.000108148
4.15443e-06
0.000106499
4.75823e-06
0.000104623
5.43712e-06
0.000102497
6.18926e-06
0.000100103
6.99693e-06
7.80867e-06
9.74359e-05
0.000117716
-1.29983e-07
0.000117569
3.98813e-07
0.000117249
1.16702e-06
0.000116865
1.44493e-06
0.000116459
1.46264e-06
0.000116006
1.58936e-06
0.000115483
1.83646e-06
0.000114882
2.13152e-06
0.000114193
2.46112e-06
0.000113406
2.83744e-06
0.000112508
3.2683e-06
0.000111485
3.7581e-06
0.000110323
4.31276e-06
0.000109003
4.9403e-06
0.000107508
5.64992e-06
0.000105815
6.4507e-06
0.000103903
7.3491e-06
0.00010175
8.3428e-06
9.93378e-05
9.40889e-06
1.04845e-05
9.6662e-05
0.000117589
-5.26e-08
0.000117387
5.9996e-07
0.000117056
1.49819e-06
0.000116666
1.83494e-06
0.000116246
1.88258e-06
0.000115771
2.06496e-06
0.000115218
2.38901e-06
0.00011458
2.76934e-06
0.00011385
3.19143e-06
0.000113018
3.66991e-06
0.000112072
4.21387e-06
0.000111002
4.82853e-06
0.000109793
5.52109e-06
0.000108432
6.30122e-06
0.000106902
7.17988e-06
0.000105185
8.16791e-06
0.000103261
9.273e-06
0.000101112
1.04923e-05
9.87227e-05
1.17979e-05
1.3118e-05
9.60891e-05
0.000117445
1.08977e-07
0.000117188
8.56949e-07
0.000116852
1.83386e-06
0.000116462
2.22454e-06
0.000116031
2.31394e-06
0.000115533
2.56304e-06
0.000114949
2.97283e-06
0.000114273
3.44566e-06
0.000113499
3.96556e-06
0.000112619
4.54927e-06
0.000111626
5.20691e-06
0.00011051
5.94445e-06
0.000109261
6.7702e-06
0.000107867
7.69521e-06
0.000106315
8.73188e-06
0.000104591
9.89236e-06
0.000102679
1.11853e-05
0.000100564
1.26072e-05
9.82357e-05
1.41259e-05
1.5663e-05
9.56908e-05
0.000117254
3.97878e-07
0.000116947
1.16323e-06
0.000116647
2.13422e-06
0.000116275
2.59625e-06
0.000115831
2.75853e-06
0.000115303
3.09041e-06
0.00011468
3.59592e-06
0.000113957
4.16886e-06
0.000113131
4.79115e-06
0.000112199
5.48134e-06
0.000111155
6.25084e-06
0.000109993
7.10644e-06
0.000108706
8.05744e-06
0.000107285
9.11598e-06
0.000105722
1.02955e-05
0.000104005
1.16089e-05
0.000102125
1.30653e-05
0.000100071
1.46611e-05
9.78365e-05
1.63607e-05
1.80831e-05
9.54164e-05
0.000116931
9.42022e-07
0.00011661
1.48357e-06
0.000116454
2.29081e-06
0.000116127
2.92324e-06
0.000115653
3.2323e-06
0.000115079
3.66414e-06
0.000114402
4.27317e-06
0.000113618
4.95308e-06
0.000112729
5.68018e-06
0.000111735
6.47496e-06
0.000110635
7.35116e-06
0.000109425
8.31669e-06
0.0001081
9.38167e-06
0.000106658
1.05589e-05
0.000105091
1.18623e-05
0.000103395
1.33049e-05
0.000101564
1.48963e-05
9.95922e-05
1.66325e-05
9.74753e-05
1.84775e-05
2.03557e-05
9.52027e-05
0.000116163
2.18901e-06
0.000116123
1.52352e-06
0.000116351
2.06235e-06
0.000116046
3.22872e-06
0.000115488
3.79043e-06
0.000114839
4.31247e-06
0.000114088
5.02503e-06
0.000113224
5.8164e-06
0.000112258
6.64664e-06
0.000111193
7.53991e-06
0.00011003
8.51428e-06
0.000108767
9.57896e-06
0.000107405
1.07444e-05
0.00010594
1.20234e-05
0.000104373
1.34293e-05
0.000102704
1.49745e-05
0.000100932
1.6668e-05
9.90572e-05
1.85073e-05
9.70775e-05
2.04572e-05
2.24437e-05
9.49895e-05
0.00011478
4.80635e-06
0.00011599
3.12733e-07
0.000116548
1.50436e-06
0.000116028
3.74897e-06
0.000115311
4.50731e-06
0.000114556
5.06763e-06
0.000113703
5.87769e-06
0.000112745
6.77464e-06
0.000111693
7.69849e-06
0.000110553
8.68017e-06
0.000109325
9.74227e-06
0.00010801
1.08946e-05
0.000106607
1.2147e-05
0.000105119
1.35113e-05
0.000103549
1.4999e-05
0.000101904
1.66199e-05
0.000100192
1.83798e-05
9.84231e-05
2.02763e-05
9.65858e-05
2.22945e-05
9.46665e-05
2.43629e-05
8.90248e-05
1.04641e-05
7.84167e-05
1.06081e-05
6.76503e-05
1.07663e-05
5.67207e-05
1.09296e-05
4.56424e-05
1.10783e-05
3.44886e-05
1.11537e-05
2.34742e-05
1.10144e-05
1.31173e-05
1.03569e-05
4.50997e-06
8.60733e-06
4.50997e-06
8.80195e-05
2.08422e-05
7.74921e-05
2.11355e-05
6.68098e-05
2.14487e-05
5.59702e-05
2.17693e-05
4.49917e-05
2.20568e-05
3.39526e-05
2.21928e-05
2.30699e-05
2.18971e-05
1.28594e-05
2.05675e-05
4.44868e-06
1.7018e-05
8.95865e-06
8.71388e-05
3.11393e-05
7.66885e-05
3.15857e-05
6.60854e-05
3.20518e-05
5.53292e-05
3.25255e-05
4.44405e-05
3.29456e-05
3.35009e-05
3.31324e-05
2.2732e-05
3.26659e-05
1.2653e-05
3.06465e-05
4.36531e-06
2.53057e-05
1.3324e-05
8.64274e-05
4.13739e-05
7.60389e-05
4.19741e-05
6.55009e-05
4.25898e-05
5.48134e-05
4.3213e-05
4.39975e-05
4.37615e-05
3.31371e-05
4.39928e-05
2.24576e-05
4.33455e-05
1.24807e-05
4.06233e-05
4.29679e-06
3.34897e-05
1.76208e-05
8.58978e-05
5.15653e-05
7.55521e-05
5.23198e-05
6.50607e-05
5.30812e-05
5.44225e-05
5.38512e-05
4.36579e-05
5.45261e-05
3.28525e-05
5.47982e-05
2.2236e-05
5.3962e-05
1.23356e-05
5.05237e-05
4.23646e-06
4.15888e-05
2.18572e-05
8.5526e-05
6.17301e-05
7.52051e-05
6.26407e-05
6.47421e-05
6.35442e-05
5.41329e-05
6.44604e-05
4.33966e-05
6.52623e-05
3.26217e-05
6.55731e-05
2.20441e-05
6.45395e-05
1.22001e-05
6.03678e-05
4.1753e-06
4.96135e-05
2.60325e-05
8.52622e-05
7.18844e-05
7.49498e-05
7.2953e-05
6.44981e-05
7.3996e-05
5.38976e-05
7.50609e-05
4.31674e-05
7.59926e-05
3.24008e-05
7.63398e-05
2.18441e-05
7.50962e-05
1.20469e-05
7.0165e-05
4.09951e-06
5.75609e-05
3.0132e-05
8.50353e-05
8.20517e-05
7.47129e-05
8.32755e-05
6.42555e-05
8.44533e-05
5.36436e-05
8.56728e-05
4.28995e-05
8.67366e-05
3.21254e-05
8.71139e-05
2.15831e-05
8.56385e-05
1.18394e-05
7.99087e-05
3.99111e-06
6.54092e-05
3.41231e-05
8.4736e-05
9.23053e-05
7.43787e-05
9.36328e-05
6.38962e-05
9.49358e-05
5.32555e-05
9.63135e-05
4.24888e-05
9.75032e-05
3.17091e-05
9.78936e-05
2.11953e-05
9.61523e-05
1.15319e-05
8.95721e-05
3.82478e-06
7.31164e-05
3.79479e-05
8.41136e-05
0.000102858
7.37323e-05
0.000104014
6.32091e-05
0.000105459
5.25465e-05
0.000106976
4.17837e-05
0.000108266
3.10372e-05
0.00010864
2.05978e-05
0.000106592
1.106e-05
9.91099e-05
3.5491e-06
8.06273e-05
4.1497e-05
3.21342e-05
0.000108396
-3.76721e-05
2.66282e-05
0.00010952
2.12117e-05
0.000110876
1.59346e-05
0.000112253
1.09467e-05
0.000113254
6.5098e-06
0.000113077
2.98467e-06
0.000110117
7.38326e-07
0.000101356
-9.25554e-08
8.14582e-05
4.14045e-05
2.6027e-05
0.000113371
-3.10016e-05
2.10446e-05
0.000114502
1.61613e-05
0.000115759
1.14891e-05
0.000116925
7.19591e-06
0.000117547
3.54215e-06
0.000116731
8.59322e-07
0.0001128
-5.46617e-07
0.000102762
-6.28126e-07
8.15397e-05
4.07763e-05
1.99446e-05
0.000117813
-2.43868e-05
1.55044e-05
0.000118943
1.11943e-05
0.000120069
7.15429e-06
0.000120965
3.57536e-06
0.000121126
7.1873e-07
0.000119587
-1.11311e-06
0.000114631
-1.68085e-06
0.00010333
-1.0452e-06
8.0904e-05
3.97311e-05
1.39462e-05
0.000121729
-1.78622e-05
1.00677e-05
0.000122821
6.35665e-06
0.00012378
2.97354e-06
0.000124349
1.26436e-07
0.000123973
-1.92562e-06
0.000121639
-2.91239e-06
0.000115618
-2.66829e-06
0.000103086
-1.37694e-06
7.96127e-05
3.83542e-05
8.0763e-06
0.000125117
-1.14643e-05
4.76985e-06
0.000126128
1.67788e-06
0.000126872
-1.02633e-06
0.000127053
-3.12583e-06
0.000126073
-4.37064e-06
0.000122884
-4.52954e-06
0.000115777
-3.51683e-06
0.000102073
-1.63903e-06
7.77349e-05
3.67152e-05
2.36471e-06
0.000127974
-5.22165e-06
-3.61342e-07
0.000128854
-2.8186e-06
0.000129329
-4.82639e-06
0.000129061
-6.16682e-06
0.000127413
-6.60719e-06
0.000123325
-5.96314e-06
0.000115133
-4.23328e-06
0.000100343
-1.84011e-06
7.53417e-05
3.4875e-05
-3.16848e-06
0.000130295
8.4764e-07
-5.30562e-06
0.000130991
-7.11476e-06
0.000131138
-8.4123e-06
0.000130358
-8.98684e-06
0.000127988
-8.63137e-06
0.000122969
-7.21583e-06
0.000113718
-4.82561e-06
9.79531e-05
-1.98839e-06
7.25045e-05
3.28866e-05
-8.51188e-06
0.000132073
6.73399e-06
-1.00499e-05
0.000132529
-1.11977e-05
0.000132286
-1.17731e-05
0.000130934
-1.15785e-05
0.000127793
-1.04408e-05
0.000121831
-8.29112e-06
0.000111568
-5.30178e-06
9.49637e-05
-2.0912e-06
6.92939e-05
3.07954e-05
-1.36594e-05
0.000133299
1.24334e-05
-1.45844e-05
0.000133454
-1.50545e-05
0.000132756
-1.48946e-05
0.000130774
-1.39285e-05
0.000126827
-1.20269e-05
0.00011993
-9.18847e-06
0.00010873
-5.66891e-06
9.14442e-05
-2.15628e-06
6.57813e-05
2.86392e-05
-1.86006e-05
1.795e-05
0.000133949
-1.88825e-05
0.000133736
-1.86453e-05
0.000132519
-1.77302e-05
0.000129858
-1.59937e-05
0.00012509
-1.33602e-05
0.000117296
-9.89939e-06
0.000105269
-5.93766e-06
8.74824e-05
-2.20078e-06
6.20444e-05
2.64384e-05
8.31876e-05
-3.82773e-05
-8.25824e-05
8.4015e-05
-3.1829e-05
8.50376e-05
-2.54094e-05
8.6199e-05
-1.90236e-05
8.74574e-05
-1.27227e-05
8.87649e-05
-6.52918e-06
9.00706e-05
-4.58046e-07
9.13239e-05
5.48068e-06
9.24773e-05
1.128e-05
1.69516e-05
9.34756e-05
8.39405e-05
-3.87056e-05
-8.35122e-05
8.45615e-05
-3.245e-05
8.53779e-05
-2.62258e-05
8.63466e-05
-1.99922e-05
8.74295e-05
-1.38057e-05
8.85858e-05
-7.68549e-06
8.9772e-05
-1.64427e-06
9.09449e-05
4.30779e-06
9.20629e-05
1.01621e-05
1.59343e-05
9.30802e-05
8.45792e-05
-3.89306e-05
-8.43543e-05
8.50145e-05
-3.28852e-05
8.56408e-05
-2.68521e-05
8.64272e-05
-2.07786e-05
8.73409e-05
-1.47193e-05
8.83474e-05
-8.69201e-06
8.94107e-05
-2.70759e-06
9.04947e-05
3.22374e-06
9.15643e-05
9.09256e-06
1.49157e-05
9.25829e-05
8.51309e-05
-3.90062e-05
-8.50553e-05
8.54049e-05
-3.31593e-05
8.58607e-05
-2.73079e-05
8.64773e-05
-2.13952e-05
8.72289e-05
-1.54709e-05
8.80882e-05
-9.55134e-06
8.90265e-05
-3.64586e-06
9.00146e-05
2.23564e-06
9.10235e-05
8.08368e-06
1.39147e-05
9.20244e-05
8.55886e-05
-3.89629e-05
-8.56318e-05
8.57271e-05
-3.32979e-05
8.60347e-05
-2.76155e-05
8.6499e-05
-2.18596e-05
8.71016e-05
-1.60735e-05
8.7822e-05
-1.02717e-05
8.86383e-05
-4.46211e-06
8.95278e-05
1.34613e-06
9.04674e-05
7.14404e-06
1.29474e-05
9.14348e-05
8.59524e-05
-3.88157e-05
-8.60997e-05
8.59744e-05
-3.33198e-05
8.61544e-05
-2.77954e-05
8.64859e-05
-2.21911e-05
8.69562e-05
-1.65438e-05
8.75504e-05
-1.08659e-05
8.82525e-05
-5.16426e-06
8.90457e-05
5.52929e-07
8.99122e-05
6.27756e-06
1.20247e-05
9.08349e-05
8.62305e-05
-3.85752e-05
-8.6471e-05
8.61502e-05
-3.32395e-05
8.62199e-05
-2.78652e-05
8.64365e-05
-2.24077e-05
8.6791e-05
-1.68983e-05
8.72731e-05
-1.1348e-05
8.78713e-05
-5.76254e-06
8.85737e-05
-1.49414e-07
8.93669e-05
5.48432e-06
1.11532e-05
9.02385e-05
8.64327e-05
-3.82511e-05
-8.67569e-05
8.62621e-05
-3.30689e-05
8.6236e-05
-2.7839e-05
8.63528e-05
-2.25245e-05
8.66066e-05
-1.71521e-05
8.699e-05
-1.17314e-05
8.74952e-05
-6.26777e-06
8.81138e-05
-7.67982e-07
8.88363e-05
4.7618e-06
1.03355e-05
8.96539e-05
8.6569e-05
-3.78517e-05
-8.69684e-05
8.63183e-05
-3.28182e-05
8.62082e-05
-2.77289e-05
8.62383e-05
-2.25546e-05
8.64044e-05
-1.73182e-05
8.67014e-05
-1.20284e-05
8.71239e-05
-6.69034e-06
8.76664e-05
-1.31043e-06
8.83223e-05
4.10591e-06
9.57209e-06
8.90857e-05
8.66489e-05
-3.73848e-05
-8.71158e-05
8.63269e-05
-3.24962e-05
8.6143e-05
-2.7545e-05
8.60972e-05
-2.25088e-05
8.61866e-05
-1.74076e-05
8.64077e-05
-1.22495e-05
8.67571e-05
-7.03973e-06
8.7231e-05
-1.78432e-06
8.78252e-05
3.51177e-06
8.86128e-06
8.8536e-05
8.66811e-05
-3.68574e-05
-8.72085e-05
8.62955e-05
-3.21106e-05
8.60462e-05
-2.72957e-05
8.59337e-05
-2.23962e-05
8.59558e-05
-1.74297e-05
8.61103e-05
-1.2404e-05
8.63949e-05
-7.32432e-06
8.68072e-05
-2.19669e-06
8.73447e-05
2.97427e-06
8.20054e-06
8.80055e-05
8.66733e-05
-3.62758e-05
-8.72549e-05
8.6231e-05
-3.16684e-05
8.59237e-05
-2.69883e-05
8.57521e-05
-2.22246e-05
8.57148e-05
-1.73925e-05
8.58104e-05
-1.24996e-05
8.60374e-05
-7.55136e-06
8.63946e-05
-2.55387e-06
8.68804e-05
2.48847e-06
7.58677e-06
8.74942e-05
8.66324e-05
-3.56457e-05
-8.72626e-05
8.61395e-05
-3.11755e-05
8.57805e-05
-2.66294e-05
8.55564e-05
-2.20005e-05
8.54664e-05
-1.73025e-05
8.55096e-05
-1.25428e-05
8.56854e-05
-7.72711e-06
8.5993e-05
-2.86146e-06
8.64317e-05
2.04974e-06
7.01671e-06
8.70018e-05
8.65645e-05
-3.4972e-05
-8.72382e-05
8.60263e-05
-3.06372e-05
8.56211e-05
-2.62242e-05
8.53502e-05
-2.17295e-05
8.52132e-05
-1.71655e-05
8.52097e-05
-1.25393e-05
8.53395e-05
-7.8569e-06
8.56024e-05
-3.12435e-06
8.59982e-05
1.6539e-06
6.48715e-06
8.65278e-05
8.64748e-05
-3.42594e-05
-8.71875e-05
8.5896e-05
-3.00584e-05
8.54495e-05
-2.57777e-05
8.51366e-05
-2.14166e-05
8.49574e-05
-1.69864e-05
8.4912e-05
-1.24939e-05
8.50005e-05
-7.94533e-06
8.52229e-05
-3.3468e-06
8.55796e-05
1.29722e-06
5.99506e-06
8.60717e-05
8.63678e-05
-3.35117e-05
-8.71154e-05
8.57525e-05
-2.94431e-05
8.52689e-05
-2.52941e-05
8.49183e-05
-2.1066e-05
8.47013e-05
-1.67693e-05
8.46181e-05
-1.24107e-05
8.46691e-05
-7.99637e-06
8.48549e-05
-3.53252e-06
8.51757e-05
9.76346e-07
5.53763e-06
8.56332e-05
8.62472e-05
-3.27326e-05
-8.70264e-05
8.55992e-05
-2.87951e-05
8.50822e-05
-2.4777e-05
8.46977e-05
-2.06816e-05
8.44465e-05
-1.65181e-05
8.43291e-05
-1.22933e-05
8.43462e-05
-8.01347e-06
8.44984e-05
-3.68473e-06
8.47864e-05
6.88339e-07
5.11227e-06
8.52118e-05
8.61165e-05
-3.19252e-05
-8.69239e-05
8.5439e-05
-2.81176e-05
8.48918e-05
-2.42299e-05
8.44767e-05
-2.02664e-05
8.41945e-05
-1.62359e-05
8.40461e-05
-1.21449e-05
8.40323e-05
-7.99967e-06
8.41539e-05
-3.8063e-06
8.44117e-05
4.30567e-07
4.71666e-06
8.48073e-05
8.59782e-05
-3.10923e-05
-8.68111e-05
8.52742e-05
-2.74136e-05
8.46998e-05
-2.36555e-05
8.42569e-05
-1.98235e-05
8.39467e-05
-1.59257e-05
8.377e-05
-1.19683e-05
8.3728e-05
-7.95762e-06
8.38214e-05
-3.89975e-06
8.40513e-05
2.00679e-07
4.34864e-06
8.44193e-05
8.58349e-05
-3.02364e-05
-8.66907e-05
8.51069e-05
-2.66855e-05
8.45079e-05
-2.30566e-05
8.40398e-05
-1.93555e-05
8.3704e-05
-1.55899e-05
8.35016e-05
-1.17659e-05
8.34337e-05
-7.88969e-06
8.35013e-05
-3.96734e-06
8.37054e-05
-3.43366e-09
4.0063e-06
8.40477e-05
8.56884e-05
-2.93598e-05
-8.6565e-05
8.49387e-05
-2.59358e-05
8.43174e-05
-2.24353e-05
8.38265e-05
-1.88645e-05
8.34674e-05
-1.52307e-05
8.32414e-05
-1.15399e-05
8.31497e-05
-7.79802e-06
8.31934e-05
-4.01109e-06
8.33737e-05
-1.8368e-07
3.68785e-06
8.36921e-05
8.55405e-05
-2.84645e-05
-8.64358e-05
8.47711e-05
-2.51665e-05
8.41296e-05
-2.17937e-05
8.36178e-05
-1.83528e-05
8.32375e-05
-1.48504e-05
8.29899e-05
-1.12923e-05
8.28763e-05
-7.68451e-06
8.28981e-05
-4.03283e-06
8.30562e-05
-3.41792e-07
3.39166e-06
8.33524e-05
8.53925e-05
-2.75523e-05
-8.63047e-05
8.46054e-05
-2.43794e-05
8.39454e-05
-2.11338e-05
8.34147e-05
-1.7822e-05
8.30148e-05
-1.44505e-05
8.27474e-05
-1.10249e-05
8.26138e-05
-7.55087e-06
8.26152e-05
-4.03421e-06
8.27527e-05
-4.79353e-07
3.11623e-06
8.30281e-05
8.52456e-05
-2.66247e-05
-8.61732e-05
8.44424e-05
-2.35761e-05
8.37657e-05
-2.0457e-05
8.32176e-05
-1.72739e-05
8.27999e-05
-1.40329e-05
8.25143e-05
-1.07392e-05
8.23621e-05
-7.39867e-06
8.23446e-05
-4.01674e-06
8.24631e-05
-5.97818e-07
2.86017e-06
8.27192e-05
8.51009e-05
-2.56832e-05
-8.60424e-05
8.4283e-05
-2.27582e-05
8.3591e-05
-1.9765e-05
8.30271e-05
-1.671e-05
8.25931e-05
-1.35989e-05
8.22907e-05
-1.04368e-05
8.21214e-05
-7.22934e-06
8.20865e-05
-3.98181e-06
8.21872e-05
-6.98525e-07
2.62219e-06
8.24251e-05
8.49592e-05
-2.47291e-05
-8.59133e-05
8.4128e-05
-2.1927e-05
8.3422e-05
-1.90591e-05
8.28436e-05
-1.61316e-05
8.23946e-05
-1.31499e-05
8.20768e-05
-1.0119e-05
8.18916e-05
-7.04418e-06
8.18405e-05
-3.9307e-06
8.19247e-05
-7.8271e-07
2.40109e-06
8.21458e-05
8.48211e-05
-2.37636e-05
-8.57867e-05
8.39777e-05
-2.10837e-05
8.32591e-05
-1.83404e-05
8.26674e-05
-1.55399e-05
8.22046e-05
-1.26871e-05
8.18725e-05
-9.78691e-06
8.16727e-05
-6.84439e-06
8.16066e-05
-3.86457e-06
8.16754e-05
-8.51521e-07
2.19574e-06
8.18808e-05
8.46873e-05
-2.27876e-05
-8.56632e-05
8.38328e-05
-2.02292e-05
8.31026e-05
-1.76102e-05
8.24987e-05
-1.4936e-05
8.20232e-05
-1.22117e-05
8.1678e-05
-9.44172e-06
8.14647e-05
-6.63105e-06
8.13846e-05
-3.78451e-06
8.14391e-05
-9.06026e-07
2.0051e-06
8.16298e-05
8.45581e-05
-2.18022e-05
-8.55435e-05
8.36936e-05
-1.93648e-05
8.29527e-05
-1.68692e-05
8.23377e-05
-1.4321e-05
8.18506e-05
-1.17246e-05
8.14933e-05
-9.08442e-06
8.12674e-05
-6.40519e-06
8.11744e-05
-3.69152e-06
8.12156e-05
-9.47219e-07
1.82818e-06
8.13925e-05
8.4434e-05
-2.08082e-05
-8.5428e-05
8.35603e-05
-1.84911e-05
8.28097e-05
-1.61186e-05
8.21844e-05
-1.36957e-05
8.16866e-05
-1.12268e-05
8.13182e-05
-8.71595e-06
8.10807e-05
-6.16773e-06
8.09757e-05
-3.58653e-06
8.10045e-05
-9.76028e-07
1.66405e-06
8.11686e-05
8.43153e-05
-1.98064e-05
-8.53171e-05
8.34333e-05
-1.76091e-05
8.26738e-05
-1.53591e-05
8.20391e-05
-1.3061e-05
8.15314e-05
-1.07191e-05
8.11526e-05
-8.33718e-06
8.09045e-05
-5.91955e-06
8.07884e-05
-3.47043e-06
8.08057e-05
-9.93322e-07
1.51185e-06
8.09579e-05
8.42022e-05
-1.87975e-05
-8.52111e-05
8.33126e-05
-1.67194e-05
8.25449e-05
-1.45914e-05
8.19017e-05
-1.24178e-05
8.13849e-05
-1.02023e-05
8.09966e-05
-7.9489e-06
8.07386e-05
-5.66145e-06
8.06121e-05
-3.344e-06
8.06187e-05
-9.99916e-07
1.37075e-06
8.07598e-05
8.4095e-05
-1.77822e-05
-8.51103e-05
8.31984e-05
-1.58229e-05
8.24233e-05
-1.38163e-05
8.17722e-05
-1.17666e-05
8.12471e-05
-9.67726e-06
8.08501e-05
-7.55186e-06
8.05828e-05
-5.39419e-06
8.04468e-05
-3.20803e-06
8.04435e-05
-9.96576e-07
1.23998e-06
8.05742e-05
8.39938e-05
-1.6761e-05
-8.50149e-05
8.30909e-05
-1.492e-05
8.2309e-05
-1.30345e-05
8.16506e-05
-1.11082e-05
8.11179e-05
-9.14452e-06
8.07128e-05
-7.14675e-06
8.0437e-05
-5.11846e-06
8.02922e-05
-3.0632e-06
8.02797e-05
-9.84022e-07
1.1188e-06
8.04008e-05
8.38986e-05
-1.57346e-05
-8.4925e-05
8.299e-05
-1.40114e-05
8.22019e-05
-1.22464e-05
8.15369e-05
-1.04432e-05
8.09972e-05
-8.60474e-06
8.05846e-05
-6.73422e-06
8.03011e-05
-4.83492e-06
8.01481e-05
-2.9102e-06
8.0127e-05
-9.62935e-07
1.00653e-06
8.02393e-05
8.38096e-05
-1.47035e-05
-8.48408e-05
8.28958e-05
-1.30976e-05
8.21022e-05
-1.14528e-05
8.14311e-05
-9.77214e-06
8.08849e-05
-8.05853e-06
8.04655e-05
-6.31485e-06
8.01748e-05
-4.54418e-06
8.00143e-05
-2.74966e-06
7.99853e-05
-9.33957e-07
9.02498e-07
8.00893e-05
8.37268e-05
-1.3668e-05
-8.47623e-05
8.28084e-05
-1.21791e-05
8.20096e-05
-1.0654e-05
8.13331e-05
-9.09559e-06
8.0781e-05
-7.50644e-06
8.03553e-05
-5.88923e-06
8.0058e-05
-4.24684e-06
7.98905e-05
-2.58216e-06
7.98542e-05
-8.97698e-07
8.06084e-07
7.99506e-05
8.36503e-05
-1.26288e-05
-8.46896e-05
8.27276e-05
-1.12564e-05
8.19243e-05
-9.85066e-06
8.12427e-05
-8.41405e-06
8.06853e-05
-6.94897e-06
8.02539e-05
-5.45789e-06
7.99505e-05
-3.94343e-06
7.97766e-05
-2.40827e-06
7.97336e-05
-8.54738e-07
7.16689e-07
7.9823e-05
8.35801e-05
-1.15861e-05
-8.46227e-05
8.26536e-05
-1.03299e-05
8.18461e-05
-9.04315e-06
8.116e-05
-7.72798e-06
8.05977e-05
-6.38662e-06
8.01611e-05
-5.02132e-06
7.98521e-05
-3.63447e-06
7.96724e-05
-2.22853e-06
7.96233e-05
-8.05628e-07
6.33741e-07
7.97062e-05
8.35161e-05
-1.05405e-05
-8.45617e-05
8.25862e-05
-9.40012e-06
8.1775e-05
-8.23191e-06
8.10849e-05
-7.03784e-06
8.05181e-05
-5.81986e-06
8.00768e-05
-4.58002e-06
7.97628e-05
-3.32047e-06
7.95777e-05
-2.04344e-06
7.9523e-05
-7.50895e-07
5.56689e-07
7.96e-05
8.34583e-05
-9.49229e-06
-8.45065e-05
8.25255e-05
-8.46735e-06
8.17109e-05
-7.41737e-06
8.10172e-05
-6.34405e-06
8.04464e-05
-5.24913e-06
8.00008e-05
-4.13443e-06
7.96823e-05
-3.00188e-06
7.94923e-05
-1.85351e-06
7.94325e-05
-6.91049e-07
4.85008e-07
7.95041e-05
8.34066e-05
-8.44181e-06
-8.44571e-05
8.24713e-05
-7.532e-06
8.16538e-05
-6.59992e-06
8.09568e-05
-5.64703e-06
8.03825e-05
-4.67485e-06
7.99331e-05
-3.68499e-06
7.96104e-05
-2.67918e-06
7.94161e-05
-1.65918e-06
7.93516e-05
-6.26577e-07
4.18186e-07
7.94184e-05
8.33611e-05
-7.38945e-06
-8.44135e-05
8.24236e-05
-6.59446e-06
8.16036e-05
-5.77995e-06
8.09037e-05
-4.94717e-06
8.03263e-05
-4.09743e-06
7.98735e-05
-3.23214e-06
7.95471e-05
-2.35278e-06
7.93488e-05
-1.46093e-06
7.92802e-05
-5.57954e-07
3.55727e-07
7.93427e-05
8.33216e-05
-6.33558e-06
-8.43755e-05
8.23822e-05
-5.65509e-06
8.15601e-05
-4.95784e-06
8.08578e-05
-4.24486e-06
8.02777e-05
-3.51727e-06
7.98218e-05
-2.77627e-06
7.94921e-05
-2.02313e-06
7.92904e-05
-1.25919e-06
7.92181e-05
-4.85642e-07
2.97141e-07
7.92767e-05
8.32881e-05
-5.28053e-06
-8.43431e-05
8.23472e-05
-4.71424e-06
8.15233e-05
-4.13394e-06
8.0819e-05
-3.54047e-06
8.02364e-05
-2.93476e-06
7.9778e-05
-2.31779e-06
7.94455e-05
-1.69063e-06
7.92407e-05
-1.0544e-06
7.91651e-05
-4.10098e-07
2.41953e-07
7.92203e-05
8.32604e-05
-4.22467e-06
-8.43163e-05
8.23185e-05
-3.77228e-06
8.14932e-05
-3.30863e-06
8.07871e-05
-2.83437e-06
8.02026e-05
-2.35026e-06
7.97419e-05
-1.85708e-06
7.94069e-05
-1.3557e-06
7.91995e-05
-8.46993e-07
7.91212e-05
-3.31776e-07
1.89682e-07
7.91735e-05
8.32386e-05
-3.16836e-06
-8.42949e-05
8.22959e-05
-2.82955e-06
8.14695e-05
-2.48224e-06
8.0762e-05
-2.12692e-06
8.01759e-05
-1.76416e-06
7.97134e-05
-1.39455e-06
7.93764e-05
-1.01874e-06
7.91668e-05
-6.37397e-07
7.90862e-05
-2.5113e-07
1.39848e-07
7.9136e-05
8.32225e-05
-2.11194e-06
-8.42789e-05
8.22793e-05
-1.88638e-06
8.14522e-05
-1.65512e-06
8.07437e-05
-1.41847e-06
8.01564e-05
-1.17682e-06
7.96924e-05
-9.3058e-07
7.93539e-05
-6.80172e-07
7.91425e-05
-4.26054e-07
7.906e-05
-1.68625e-07
9.19612e-08
7.91079e-05
8.3212e-05
-1.05572e-06
-8.42682e-05
8.22687e-05
-9.43105e-07
8.14412e-05
-8.27596e-07
8.07321e-05
-7.09371e-07
8.01439e-05
-5.88633e-07
7.96789e-05
-4.65582e-07
7.93392e-05
-3.40437e-07
7.91266e-05
-2.13424e-07
7.90427e-05
-8.47443e-08
4.55195e-08
7.90891e-05
8.32071e-05
-8.42628e-05
8.2264e-05
8.14364e-05
8.0727e-05
8.01384e-05
7.96728e-05
7.93324e-05
7.91189e-05
7.90342e-05
7.90797e-05
8.26373e-05
3.15084e-06
8.17084e-05
1.24167e-06
8.12558e-05
1.95691e-06
8.1398e-05
3.60682e-06
8.14278e-05
4.47748e-06
8.13324e-05
5.16305e-06
8.1223e-05
5.98708e-06
8.11157e-05
6.88198e-06
8.10026e-05
7.81156e-06
8.08873e-05
8.79544e-06
8.07786e-05
9.85101e-06
8.06855e-05
1.09877e-05
8.06181e-05
1.22143e-05
8.0589e-05
1.35405e-05
8.06131e-05
1.49748e-05
8.07091e-05
1.65239e-05
8.08996e-05
1.81893e-05
8.12167e-05
1.99593e-05
8.17261e-05
2.17851e-05
2.35067e-05
8.23369e-05
1.8708e-06
8.18276e-05
1.75096e-06
8.14495e-05
2.33497e-06
8.15003e-05
3.55607e-06
8.152e-05
4.45776e-06
8.1458e-05
5.22503e-06
8.13852e-05
6.05985e-06
8.13167e-05
6.95051e-06
8.12489e-05
7.87938e-06
8.11857e-05
8.85868e-06
8.11351e-05
9.90154e-06
8.11064e-05
1.10164e-05
8.11098e-05
1.22109e-05
8.11581e-05
1.34923e-05
8.12663e-05
1.48666e-05
8.14533e-05
1.6337e-05
8.17419e-05
1.79007e-05
8.2161e-05
1.95401e-05
8.27463e-05
2.11998e-05
2.27408e-05
8.16882e-05
1.27315e-06
8.1628e-05
1.81121e-06
8.1468e-05
2.49492e-06
8.14992e-05
3.52495e-06
8.15338e-05
4.4231e-06
8.15202e-05
5.2386e-06
8.1494e-05
6.08613e-06
8.14698e-05
6.97472e-06
8.14495e-05
7.89965e-06
8.14381e-05
8.87003e-06
8.14437e-05
9.896e-06
8.14752e-05
1.09849e-05
8.1543e-05
1.2143e-05
8.16595e-05
1.33757e-05
8.18394e-05
1.46867e-05
8.20998e-05
1.60766e-05
8.24608e-05
1.75397e-05
8.29443e-05
1.90566e-05
8.35704e-05
2.05736e-05
2.1957e-05
8.14039e-05
9.80959e-07
8.14356e-05
1.7795e-06
8.13999e-05
2.53056e-06
8.14534e-05
3.47153e-06
8.1512e-05
4.36447e-06
8.15422e-05
5.20843e-06
8.15618e-05
6.06648e-06
8.15827e-05
6.95378e-06
8.16096e-05
7.87282e-06
8.16483e-05
8.83135e-06
8.17067e-05
9.83758e-06
8.17938e-05
1.08978e-05
8.19197e-05
1.20171e-05
8.20962e-05
1.31992e-05
8.23368e-05
1.44462e-05
8.26568e-05
1.57566e-05
8.30733e-05
1.71232e-05
8.36035e-05
1.85263e-05
8.42619e-05
1.99153e-05
2.11635e-05
8.12649e-05
8.44379e-07
8.1315e-05
1.72946e-06
8.13376e-05
2.50787e-06
8.14058e-05
3.40342e-06
8.14822e-05
4.28806e-06
8.1546e-05
5.14458e-06
8.16048e-05
6.00769e-06
8.16667e-05
6.89194e-06
8.17368e-05
7.80268e-06
8.18214e-05
8.74677e-06
8.1928e-05
9.731e-06
8.20651e-05
1.07607e-05
8.22424e-05
1.18398e-05
8.24708e-05
1.29709e-05
8.27624e-05
1.41545e-05
8.31309e-05
1.53881e-05
8.35905e-05
1.66636e-05
8.4155e-05
1.79618e-05
8.48348e-05
1.92355e-05
2.03665e-05
8.12059e-05
7.81376e-07
8.1253e-05
1.68239e-06
8.1298e-05
2.46281e-06
8.13726e-05
3.32886e-06
8.14599e-05
4.20073e-06
8.1547e-05
5.05746e-06
8.1636e-05
5.91868e-06
8.17319e-05
6.79606e-06
8.18393e-05
7.69527e-06
8.19639e-05
8.62214e-06
8.21127e-05
9.58226e-06
8.22934e-05
1.058e-05
8.2515e-05
1.16182e-05
8.27873e-05
1.26986e-05
8.31212e-05
1.38206e-05
8.35284e-05
1.49809e-05
8.40209e-05
1.61711e-05
8.46098e-05
1.73729e-05
8.53028e-05
1.85426e-05
1.95696e-05
8.11881e-05
7.49824e-07
8.12286e-05
1.64187e-06
8.12804e-05
2.41094e-06
8.13571e-05
3.25219e-06
8.14506e-05
4.10725e-06
8.15529e-05
4.95516e-06
8.16639e-05
5.80768e-06
8.17865e-05
6.67349e-06
8.19243e-05
7.5574e-06
8.20824e-05
8.46412e-06
8.22666e-05
9.39802e-06
8.24841e-05
1.03625e-05
8.27427e-05
1.13596e-05
8.30513e-05
1.239e-05
8.34193e-05
1.34526e-05
8.38567e-05
1.45435e-05
8.43736e-05
1.56542e-05
8.49789e-05
1.67676e-05
8.56785e-05
1.7843e-05
1.87771e-05
8.11892e-05
7.30335e-07
8.12257e-05
1.60538e-06
8.12794e-05
2.3572e-06
8.13567e-05
3.17491e-06
8.14538e-05
4.01018e-06
8.1566e-05
4.84299e-06
8.16926e-05
5.68105e-06
8.18353e-05
6.53073e-06
8.19971e-05
7.39562e-06
8.2182e-05
8.27927e-06
8.23951e-05
9.18494e-06
8.26425e-05
1.01151e-05
8.29311e-05
1.10709e-05
8.32687e-05
1.20525e-05
8.36633e-05
1.3058e-05
8.41234e-05
1.40833e-05
8.46575e-05
1.51202e-05
8.52726e-05
1.61525e-05
8.59732e-05
1.71424e-05
1.79934e-05
8.11985e-05
7.14501e-07
8.12339e-05
1.56994e-06
8.12888e-05
2.30234e-06
8.13668e-05
3.09693e-06
8.14665e-05
3.91048e-06
8.15854e-05
4.72403e-06
8.17232e-05
5.54327e-06
8.1881e-05
6.37295e-06
8.20611e-05
7.21555e-06
8.22668e-05
8.07354e-06
8.25025e-05
8.9492e-06
8.27735e-05
9.84408e-06
8.30856e-05
1.07588e-05
8.34455e-05
1.16926e-05
8.386e-05
1.26435e-05
8.43362e-05
1.3607e-05
8.48811e-05
1.45754e-05
8.55004e-05
1.55331e-05
8.61973e-05
1.64455e-05
1.72223e-05
8.1211e-05
6.98905e-07
8.12473e-05
1.53363e-06
8.13037e-05
2.24598e-06
8.1383e-05
3.01763e-06
8.14852e-05
3.80829e-06
8.16092e-05
4.59994e-06
8.17552e-05
5.39731e-06
8.19241e-05
6.20405e-06
8.21179e-05
7.02175e-06
8.23395e-05
7.85199e-06
8.25924e-05
8.69622e-06
8.28813e-05
9.55524e-06
8.3211e-05
1.0429e-05
8.35872e-05
1.13165e-05
8.40156e-05
1.22151e-05
8.45022e-05
1.31205e-05
8.50525e-05
1.4025e-05
8.56712e-05
1.49145e-05
8.63603e-05
1.57564e-05
1.64668e-05
8.12244e-05
6.82351e-07
8.12625e-05
1.49553e-06
8.13208e-05
2.18765e-06
8.14021e-05
2.93641e-06
8.15069e-05
3.70348e-06
8.16351e-05
4.47166e-06
8.17873e-05
5.24513e-06
8.19645e-05
6.02687e-06
8.21685e-05
6.81778e-06
8.24017e-05
7.61877e-06
8.26673e-05
8.43058e-06
8.29691e-05
9.25345e-06
8.33113e-05
1.00868e-05
8.36986e-05
1.09292e-05
8.41358e-05
1.17779e-05
8.46277e-05
1.26285e-05
8.51789e-05
1.34738e-05
8.57929e-05
1.43004e-05
8.6471e-05
1.50784e-05
1.57293e-05
8.12378e-05
6.64583e-07
8.12779e-05
1.4554e-06
8.13384e-05
2.12713e-06
8.14219e-05
2.85296e-06
8.15294e-05
3.59602e-06
8.16612e-05
4.33978e-06
8.18182e-05
5.08812e-06
8.20016e-05
5.84352e-06
8.2213e-05
6.60642e-06
8.24545e-05
7.37719e-06
8.27291e-05
8.15606e-06
8.30397e-05
8.94279e-06
8.33901e-05
9.73643e-06
8.37841e-05
1.05352e-05
8.42256e-05
1.13363e-05
8.47188e-05
1.21354e-05
8.5267e-05
1.29256e-05
8.5873e-05
1.36944e-05
8.65373e-05
1.44141e-05
1.50116e-05
8.12508e-05
6.45702e-07
8.12928e-05
1.41337e-06
8.13555e-05
2.06449e-06
8.14412e-05
2.76725e-06
8.15512e-05
3.48603e-06
8.16861e-05
4.20484e-06
8.18469e-05
4.92733e-06
8.20348e-05
5.65562e-06
8.22514e-05
6.38982e-06
8.24987e-05
7.1299e-06
8.2779e-05
7.87571e-06
8.30952e-05
8.62663e-06
8.34502e-05
9.38145e-06
8.38472e-05
1.01382e-05
8.42895e-05
1.0894e-05
8.47803e-05
1.16446e-05
8.53225e-05
1.23835e-05
8.59178e-05
1.30991e-05
8.65662e-05
1.37657e-05
1.43153e-05
8.12632e-05
6.2592e-07
8.13069e-05
1.36972e-06
8.13714e-05
1.99997e-06
8.14591e-05
2.67949e-06
8.15714e-05
3.37379e-06
8.17089e-05
4.06737e-06
8.18725e-05
4.76366e-06
8.20636e-05
5.4645e-06
8.22837e-05
6.16972e-06
8.25346e-05
6.87903e-06
8.28183e-05
7.59198e-06
8.31373e-05
8.30771e-06
8.34939e-05
9.02478e-06
8.3891e-05
9.74112e-06
8.43312e-05
1.04538e-05
8.48169e-05
1.11588e-05
8.53504e-05
1.185e-05
8.5933e-05
1.25165e-05
8.6564e-05
1.31346e-05
1.36412e-05
8.12751e-05
6.05462e-07
8.132e-05
1.3248e-06
8.1386e-05
1.93391e-06
8.14755e-05
2.59003e-06
8.15896e-05
3.25972e-06
8.1729e-05
3.92797e-06
8.18947e-05
4.59794e-06
8.20879e-05
5.27125e-06
8.23101e-05
5.94755e-06
8.25629e-05
6.62631e-06
8.2848e-05
7.30688e-06
8.31674e-05
7.98822e-06
8.35235e-05
8.66876e-06
8.39182e-05
9.34638e-06
8.43538e-05
1.00182e-05
8.48323e-05
1.06803e-05
8.53553e-05
1.1327e-05
8.59235e-05
1.19483e-05
8.65361e-05
1.2522e-05
1.29898e-05
8.12864e-05
5.8453e-07
8.13322e-05
1.27896e-06