/*--------------------------------*- C++ -*----------------------------------*\
  =========                 |
  \\      /  F ield         | OpenFOAM: The Open Source CFD Toolbox
   \\    /   O peration     | Website:  https://openfoam.org
    \\  /    A nd           | Version:  6
     \\/     M anipulation  |
\*---------------------------------------------------------------------------*/
FoamFile
{
    version     2.0;
    format      ascii;
    class       volVectorField;
    location    "0.9";
    object      U;
}
// * * * * * * * * * * * * * * * * * * * * * * * * * * * * * * * * * * * * * //

dimensions      [0 1 -1 0 0 0 0];

internalField   nonuniform List<vector> 
5600
(
(1.74981 0.00450689 3.7421e-19)
(1.1849 0.00521486 -6.43145e-18)
(0.978596 0.00486279 6.41702e-18)
(1.0077 0.00394682 0)
(1.0326 0.00362602 0)
(1.02846 0.00395897 0)
(1.01964 0.00444882 -1.19731e-17)
(1.01304 0.00493083 1.19459e-17)
(1.00678 0.00546369 0)
(0.999653 0.00608985 0)
(0.991584 0.00681319 0)
(0.982602 0.007637 0)
(0.9726 0.00857353 0)
(0.961426 0.00963919 -2.3572e-17)
(0.948918 0.0108517 2.35192e-17)
(0.9349 0.0122287 -4.69344e-17)
(0.919176 0.0137832 4.68297e-17)
(0.901541 0.0155122 0)
(0.881793 0.0173736 -3.64245e-19)
(0.859775 0.0192299 0)
(1.7597 0.00813607 -3.68994e-19)
(1.18018 0.0112081 6.34248e-18)
(0.978092 0.011741 -6.3306e-18)
(1.01025 0.0110761 0)
(1.0344 0.011035 0)
(1.02952 0.0119032 2.44438e-17)
(1.02065 0.0131195 2.57151e-22)
(1.01412 0.0144674 -7.37745e-19)
(1.0079 0.0160113 1.34393e-22)
(1.00082 0.0178107 -2.35235e-17)
(0.992829 0.019883 0)
(0.983959 0.0222479 -4.76021e-17)
(0.9741 0.0249398 4.67811e-17)
(0.963106 0.0280026 0)
(0.950824 0.0314854 0)
(0.937088 0.0354367 0)
(0.921711 0.0398913 0)
(0.9045 0.0448368 -4.63451e-17)
(0.885255 0.0501502 4.66195e-17)
(0.86373 0.0554779 4.54809e-17)
(1.77185 0.00884762 0)
(1.17853 0.0171826 0)
(0.976584 0.0194728 0)
(1.01142 0.0183138 0)
(1.03597 0.0182653 2.34238e-17)
(1.03095 0.0197287 -2.41201e-17)
(1.02222 0.0216995 -1.45967e-18)
(1.01594 0.0238866 -7.2876e-19)
(1.00994 0.0264146 2.32862e-17)
(1.00307 0.0293698 -2.17985e-17)
(0.995325 0.0327761 -1.4511e-18)
(0.986746 0.0366651 4.70919e-17)
(0.977234 0.0410913 -4.7746e-17)
(0.966656 0.0461239 1.44473e-18)
(0.954879 0.0518399 4.61642e-17)
(0.941757 0.0583159 -9.36337e-17)
(0.927124 0.0656061 -1.43901e-18)
(0.910801 0.0736891 4.5962e-17)
(0.89259 0.0823637 -1.43423e-18)
(0.872168 0.0910744 -7.1644e-19)
(1.78684 0.0107577 0)
(1.17808 0.0222339 -1.44425e-18)
(0.974609 0.0257513 0)
(1.01202 0.0245892 0)
(1.03745 0.0248264 0)
(1.03261 0.0269837 0)
(1.02423 0.0297701 1.4382e-18)
(1.01838 0.0328434 2.44256e-17)
(1.01278 0.0363819 -2.29662e-17)
(1.00632 0.0404994 -1.43399e-18)
(0.999013 0.0452284 2.86517e-18)
(0.99093 0.0506125 0)
(0.981993 0.0567254 -4.43236e-17)
(0.972093 0.0636593 4.42799e-17)
(0.961127 0.0715169 4.56641e-17)
(0.948979 0.0804 -4.56191e-17)
(0.935517 0.0903811 9.25744e-17)
(0.920585 0.101433 -9.10601e-17)
(0.904007 0.113286 1.42144e-18)
(0.885409 0.12521 1.42063e-18)
(1.80442 0.0128444 -5.60534e-18)
(1.17772 0.0265793 7.07899e-18)
(0.972318 0.0309351 -1.13357e-17)
(1.0126 0.0298831 -1.13298e-17)
(1.03909 0.0305359 2.26515e-17)
(1.03457 0.033448 2.26409e-17)
(1.02668 0.0370965 -2.26315e-17)
(1.02141 0.0410979 1.41389e-18)
(1.01638 0.0456711 1.4133e-18)
(1.01048 0.0509505 4.52068e-17)
(1.00379 0.056975 -9.03754e-17)
(0.996392 0.063799 1.41121e-18)
(0.988246 0.0715128 4.65604e-17)
(0.979274 0.0802285 1.41032e-18)
(0.969412 0.0900702 -4.3702e-17)
(0.958587 0.101161 4.79104e-17)
(0.946709 0.113588 1.40852e-18)
(0.933659 0.12732 0)
(0.919299 0.142024 1.40732e-18)
(0.903237 0.156813 1.4071e-18)
(1.82432 0.014825 5.48516e-18)
(1.17714 0.030299 -5.54242e-18)
(0.969755 0.0351381 1.38781e-18)
(1.01338 0.0341345 0)
(1.04108 0.0352677 2.22116e-17)
(1.03694 0.0389996 -2.22162e-17)
(1.02962 0.0435587 1.3888e-18)
(1.02504 0.0485243 -4.72294e-17)
(1.02068 0.0541478 -2.77892e-18)
(1.01546 0.0605754 8.89383e-17)
(1.00951 0.0678485 -4.72578e-17)
(1.00296 0.0760299 -1.39022e-18)
(0.995788 0.0852235 -4.72769e-17)
(0.987962 0.0955571 -4.58957e-17)
(0.979463 0.107171 8.76349e-17)
(0.97027 0.120203 8.62611e-17)
(0.960342 0.134752 -9.04516e-17)
(0.949605 0.150781 8.76858e-17)
(0.937976 0.1679 -1.7958e-16)
(0.925068 0.185086 8.77315e-17)
(1.8462 0.016816 0)
(1.1759 0.0332808 0)
(0.966843 0.0380997 -1.35686e-18)
(1.01455 0.037154 2.17273e-17)
(1.0436 0.0389264 -2.17466e-17)
(1.03982 0.0435869 -1.36028e-18)
(1.0331 0.0491185 -1.3615e-18)
(1.02925 0.0550815 1.36271e-18)
(1.0256 0.0617561 1.36391e-18)
(1.02113 0.0692944 0)
(1.01601 0.0777386 4.50882e-17)
(1.01041 0.0871587 2.04623e-22)
(1.00435 0.0976699 -4.24298e-17)
(0.997845 0.109411 -8.63043e-17)
(0.99092 0.122533 1.75501e-16)
(0.98361 0.137183 -8.64547e-17)
(0.97593 0.153463 8.79041e-17)
(0.967855 0.171334 -8.66053e-17)
(0.959359 0.19036 -8.80567e-17)
(0.950084 0.209411 8.67591e-17)
(1.86964 0.0197186 0)
(1.17296 0.0351087 1.32129e-18)
(0.963348 0.0391128 -2.11913e-17)
(1.01633 0.0387461 2.25519e-17)
(1.04678 0.0415458 -2.12569e-17)
(1.04318 0.0472588 2.39525e-17)
(1.03703 0.0538211 0)
(1.03391 0.060805 1.33499e-18)
(1.03097 0.0685033 0)
(1.02725 0.0770749 -1.3393e-18)
(1.023 0.0865681 4.29271e-17)
(1.01844 0.0970617 -4.29962e-17)
(1.0136 0.10868 -8.61315e-17)
(1.00855 0.121568 8.49223e-17)
(1.00336 0.13588 0)
(0.998118 0.151764 0)
(0.992904 0.169326 8.66889e-17)
(0.987741 0.188526 1.87795e-22)
(0.982669 0.208908 -8.69685e-17)
(0.977366 0.2293 8.84634e-17)
(1.89423 0.0275607 -4.4512e-18)
(1.16547 0.0335213 4.50087e-18)
(0.959381 0.0357822 0)
(1.01955 0.0387152 -1.94102e-18)
(1.05071 0.0434954 -2.07512e-17)
(1.04681 0.050259 -2.21007e-17)
(1.04116 0.0578621 8.34013e-17)
(1.03874 0.0658969 -4.31066e-17)
(1.03647 0.074577 -4.19004e-17)
(1.03351 0.0840801 4.33132e-17)
(1.03017 0.0944827 -8.4203e-17)
(1.0267 0.105876 1.6881e-16)
(1.02316 0.118386 1.83572e-22)
(1.01965 0.132159 -8.4812e-17)
(1.01629 0.147343 0)
(1.01323 0.164076 8.52218e-17)
(1.01061 0.182459 -1.70855e-16)
(1.00851 0.202467 8.56343e-17)
(1.00707 0.223654 0)
(1.00605 0.24483 0)
(1.9207 0.0448326 -5.55958e-18)
(1.14595 0.022388 4.37461e-18)
(0.95807 0.0247165 0)
(1.02723 0.0375715 2.07853e-17)
(1.05532 0.0457184 -2.02196e-17)
(1.05008 0.053068 -4.05662e-17)
(1.04516 0.0615361 -2.36218e-22)
(1.04348 0.0706243 8.1653e-17)
(1.04183 0.0802261 -8.1915e-17)
(1.03962 0.090548 4.10892e-17)
(1.03725 0.101737 -8.24434e-17)
(1.03492 0.113902 8.27096e-17)
(1.03273 0.127164 -8.29773e-17)
(1.0308 0.141656 8.32463e-17)
(1.0293 0.157507 8.35168e-17)
(1.02842 0.174832 -8.37887e-17)
(1.02837 0.193707 0)
(1.02935 0.214133 -8.43362e-17)
(1.03161 0.235823 8.46126e-17)
(1.03497 0.257629 8.48658e-17)
(0.832143 0.0208476 0)
(0.79462 0.0230718 0)
(0.749554 0.0256236 4.24046e-17)
(0.694877 0.0285551 -2.30171e-17)
(0.627818 0.0318729 -2.51696e-17)
(0.544852 0.0354205 4.16389e-17)
(0.442222 0.0386324 -1.54647e-17)
(0.316315 0.0401485 3.48985e-17)
(0.16584 0.0372292 0)
(0.0464142 0.0211229 0)
(0.836791 0.0604402 -1.83995e-17)
(0.800013 0.0672131 -5.93051e-17)
(0.755689 0.0750141 -2.13294e-17)
(0.701902 0.083999 2.31545e-17)
(0.635883 0.0941922 2.53157e-17)
(0.55406 0.105112 -5.58294e-17)
(0.452551 0.115056 4.66394e-17)
(0.327484 0.119853 -8.76606e-17)
(0.176526 0.110841 -1.00388e-17)
(0.0527392 0.0630996 6.41801e-17)
(0.84666 0.0992231 1.84755e-17)
(0.811266 0.110374 -1.98503e-17)
(0.768378 0.12325 4.28376e-17)
(0.716321 0.138078 4.65088e-17)
(0.652317 0.154897 -5.08591e-17)
(0.572708 0.172896 -2.80437e-17)
(0.47335 0.189257 3.12453e-17)
(0.349719 0.197037 -5.28633e-17)
(0.197769 0.181603 8.07446e-17)
(0.0653985 0.103554 -1.52594e-16)
(0.862097 0.136341 3.69774e-17)
(0.828618 0.151696 0)
(0.787745 0.169426 0)
(0.738144 0.189795 -4.65438e-17)
(0.677004 0.212857 5.08972e-17)
(0.600532 0.237465 2.05973e-21)
(0.504193 0.259701 0)
(0.382473 0.269956 7.05477e-17)
(0.228972 0.248029 -6.06099e-17)
(0.0839865 0.14126 1.87981e-16)
(0.882815 0.170533 -3.68821e-17)
(0.851706 0.189778 0)
(0.813345 0.212024 8.54989e-17)
(0.766827 0.237523 0)
(0.709278 0.266335 5.0741e-17)
(0.636721 0.296981 5.59544e-17)
(0.54412 0.324466 0)
(0.424688 0.33665 1.40593e-16)
(0.269058 0.308287 -2.01282e-17)
(0.1078 0.175084 -7.02073e-17)
(0.908098 0.200885 1.95341e-21)
(0.879734 0.223595 -1.57525e-16)
(0.844301 0.249915 -2.60376e-21)
(0.801392 0.280024 0)
(0.748029 0.31399 -5.04083e-17)
(0.68001 0.349992 -5.55663e-17)
(0.591705 0.381991 0)
(0.474827 0.395479 -1.39514e-16)
(0.316517 0.360756 -1.59667e-16)
(0.135882 0.204051 2.319e-17)
(0.936964 0.226761 7.26112e-22)
(0.911617 0.252468 1.07327e-21)
(0.879438 0.282362 1.68312e-16)
(0.840546 0.316511 -1.24503e-21)
(0.791811 0.354968 -9.9782e-17)
(0.728775 0.395558 -1.0995e-16)
(0.645136 0.431223 -3.05939e-17)
(0.530938 0.445267 3.44649e-17)
(0.369465 0.404216 1.18245e-16)
(0.167034 0.227387 2.2872e-16)
(0.968305 0.247822 -1.72008e-21)
(0.946065 0.276097 7.70578e-17)
(0.917342 0.309067 -1.66161e-16)
(0.882739 0.346678 -4.5062e-17)
(0.838892 0.388943 2.46068e-16)
(0.78109 0.433304 1.08402e-16)
(0.702314 0.471699 -1.20558e-16)
(0.590834 0.485455 0)
(0.425832 0.438054 3.8757e-17)
(0.199914 0.24466 -4.04319e-16)
(1.00098 0.264159 -1.19544e-21)
(0.98141 0.294578 -7.58639e-17)
(0.956167 0.330192 3.91241e-21)
(0.925982 0.370762 -8.86524e-17)
(0.887169 0.416215 9.6768e-17)
(0.834828 0.46358 5.3255e-17)
(0.761193 0.503817 5.9189e-17)
(0.652608 0.516481 -3.32765e-17)
(0.483814 0.462666 3.79644e-17)
(0.233198 0.255966 1.7578e-16)
(1.033 0.277376 -6.94048e-17)
(1.01498 0.309475 -7.44655e-17)
(0.993382 0.34736 8.0224e-17)
(0.967775 0.390404 8.69298e-17)
(0.934278 0.438315 -1.89695e-16)
(0.887857 0.487614 0)
(0.819792 0.528314 0)
(0.714116 0.538562 -3.25278e-17)
(0.540766 0.477995 3.70605e-17)
(0.264847 0.261071 0)
(1.06224 0.297917 6.78775e-17)
(1.04492 0.331016 7.29066e-17)
(1.02688 0.369224 0)
(1.00515 0.412446 -8.52743e-17)
(0.976115 0.459572 0)
(0.93434 0.506337 -1.02599e-16)
(0.869987 0.542187 -5.7067e-17)
(0.765021 0.545406 -6.42428e-17)
(0.586191 0.477195 -1.46824e-16)
(0.289175 0.25648 1.70331e-16)
(1.09363 0.316341 1.58331e-21)
(1.07987 0.350003 -1.48273e-16)
(1.06535 0.387706 2.1816e-21)
(1.04709 0.42983 8.67559e-17)
(1.02146 0.474357 0)
(0.982323 0.516181 1.04453e-16)
(0.918598 0.544316 0)
(0.810597 0.53771 1.30944e-16)
(0.623498 0.460503 1.51547e-20)
(0.307054 0.241891 -1.73822e-16)
(1.12632 0.330666 6.99982e-17)
(1.11659 0.363853 -7.52016e-17)
(1.10547 0.400348 2.4336e-16)
(1.09023 0.440356 -8.80375e-17)
(1.06708 0.481108 -9.62202e-17)
(1.02914 0.516812 -5.30274e-17)
(0.964215 0.536251 2.37422e-21)
(0.851374 0.519336 6.65386e-17)
(0.654997 0.43365 2.66458e-16)
(0.320426 0.221447 4.42231e-17)
(1.16004 0.340054 -1.41663e-16)
(1.15403 0.37204 0)
(1.14593 0.406573 -4.47202e-21)
(1.13308 0.44347 8.91226e-17)
(1.11137 0.479377 2.43589e-16)
(1.0732 0.508035 5.37073e-17)
(1.00547 0.518289 1.19636e-16)
(0.886353 0.491391 -1.0117e-16)
(0.680001 0.39882 -1.93059e-16)
(0.329181 0.197078 1.79531e-16)
(1.19407 0.344191 7.15027e-17)
(1.19122 0.374307 7.68251e-17)
(1.18552 0.406137 -1.65798e-16)
(1.17417 0.439012 -4.50027e-17)
(1.15262 0.469132 -1.96824e-16)
(1.11261 0.489992 -1.62786e-16)
(1.04032 0.490817 -2.41806e-16)
(0.91345 0.454638 1.3638e-16)
(0.696728 0.357319 0)
(0.332688 0.170007 -2.04415e-16)
(1.2274 0.342875 1.07988e-16)
(1.22702 0.370509 0)
(1.22286 0.398968 0)
(1.21189 0.427062 0)
(1.18905 0.450684 0)
(1.14547 0.463304 1.09339e-16)
(1.06687 0.454839 1.21839e-16)
(0.931012 0.410489 0)
(0.70406 0.310867 0)
(0.330747 0.141491 -9.16425e-17)
(1.25898 0.336128 -3.61494e-17)
(1.26019 0.36075 -8.63665e-22)
(1.25652 0.385272 -4.19204e-17)
(1.24463 0.408004 4.55189e-17)
(1.21892 0.424687 -4.97855e-17)
(1.17008 0.428984 1.37299e-16)
(1.08362 0.41179 -3.06045e-17)
(0.937972 0.360773 6.90707e-17)
(0.701578 0.261436 -1.9791e-17)
(0.323543 0.112768 9.21527e-17)
(1.28772 0.324205 7.24128e-17)
(1.28952 0.345391 -3.8904e-17)
(1.28512 0.365538 0)
(1.27088 0.382527 -4.55951e-17)
(1.24072 0.39211 0)
(1.18503 0.388349 -5.50155e-17)
(1.08952 0.363365 -3.06567e-17)
(0.933823 0.307484 3.45975e-17)
(0.689436 0.211005 0)
(0.31155 0.0849586 -1.15421e-17)
(1.31262 0.307565 -5.42495e-17)
(1.31388 0.325018 3.88601e-17)
(1.3075 0.340494 0)
(1.2895 0.351554 0)
(1.25344 0.354129 4.98091e-17)
(1.18963 0.342878 -2.74743e-17)
(1.08436 0.311354 -3.0619e-17)
(0.918952 0.252628 -6.91133e-17)
(0.668503 0.161468 3.96072e-17)
(0.295517 0.059046 -5.18662e-17)
(1.333 0.286831 5.40471e-17)
(1.33269 0.300269 -5.66552e-22)
(1.32314 0.310789 -2.08883e-17)
(1.30005 0.315795 0)
(1.25674 0.311596 -2.48052e-17)
(1.18373 0.293668 -1.36797e-17)
(1.06825 0.257181 3.8113e-17)
(0.893789 0.197923 8.60115e-18)
(0.639449 0.11455 -4.43542e-17)
(0.275946 0.0358739 5.16177e-17)
(1.07603 0.273828 -4.17846e-16)
(1.10509 0.290517 1.03358e-16)
(1.13469 0.303906 0)
(1.1652 0.313095 1.02236e-16)
(1.19623 0.317822 -3.32383e-23)
(1.22688 0.3179 -1.56308e-18)
(1.25624 0.313296 7.77571e-19)
(1.28343 0.304165 -4.99432e-17)
(1.30759 0.290829 4.97856e-17)
(1.32796 0.273847 -2.46459e-17)
(1.08611 0.261271 2.08381e-16)
(1.11291 0.275272 0)
(1.14008 0.286667 0)
(1.168 0.294621 1.00499e-16)
(1.1966 0.298833 1.57127e-18)
(1.22503 0.299134 -7.80834e-19)
(1.25252 0.295474 7.76877e-19)
(1.27831 0.287954 4.87455e-17)
(1.30166 0.276806 -4.93667e-17)
(1.32178 0.262542 2.46308e-17)
(1.09578 0.250684 0)
(1.12002 0.262438 -1.02993e-16)
(1.14472 0.271806 1.02059e-16)
(1.17012 0.278348 -1.01253e-16)
(1.19629 0.281786 0)
(1.22249 0.281968 -7.81138e-19)
(1.24804 0.278846 -9.87263e-17)
(1.2723 0.272486 0)
(1.29469 0.263059 0)
(1.31434 0.251024 -2.46584e-17)
(1.10436 0.240468 0)
(1.12644 0.250221 1.16604e-21)
(1.14888 0.257844 -1.01976e-16)
(1.17194 0.263137 1.01214e-16)
(1.19576 0.265858 7.85642e-19)
(1.21974 0.265877 -1.00797e-16)
(1.24332 0.263148 -2.64537e-22)
(1.26597 0.257715 0)
(1.28723 0.249703 0)
(1.30623 0.239508 0)
(1.11148 0.230507 -1.03598e-16)
(1.13175 0.238623 2.0544e-16)
(1.15225 0.244819 7.9602e-19)
(1.17324 0.249047 -1.01967e-16)
(1.19493 0.251123 -7.85652e-19)
(1.21685 0.250946 -1.0005e-16)
(1.23855 0.248484 1.50218e-16)
(1.25959 0.243766 -3.87843e-19)
(1.27964 0.23689 -4.91303e-17)
(1.29784 0.228191 -2.47145e-17)
(1.11723 0.220763 2.06806e-16)
(1.13591 0.227584 -1.02584e-16)
(1.15472 0.232648 1.01808e-16)
(1.17392 0.236007 1.00348e-16)
(1.19375 0.237532 1.02137e-16)
(1.21382 0.237157 9.93024e-17)
(1.23378 0.234868 -4.9844e-17)
(1.25329 0.230693 -3.88169e-19)
(1.27211 0.224712 3.86955e-19)
(1.28943 0.217217 2.47423e-17)
(1.12174 0.211229 -1.03612e-16)
(1.139 0.217006 -1.02047e-16)
(1.15633 0.221178 -1.01725e-16)
(1.17398 0.223847 -1.01101e-16)
(1.19219 0.224929 -9.97815e-17)
(1.21063 0.224386 9.85541e-17)
(1.22903 0.222223 -4.90955e-17)
(1.24713 0.218469 0)
(1.26475 0.2132 9.92346e-17)
(1.28116 0.206673 0)
(1.12516 0.201921 0)
(1.14114 0.206842 1.02313e-16)
(1.15717 0.210307 -1.01641e-16)
(1.17348 0.212437 7.89541e-19)
(1.19027 0.213177 -1.02139e-16)
(1.20727 0.21251 -1.00153e-16)
(1.22429 0.210453 5.06853e-17)
(1.2411 0.207041 -4.97699e-17)
(1.25761 0.202346 -9.93351e-17)
(1.2731 0.196603 0)
(1.12764 0.19286 -1.0282e-16)
(1.14246 0.197075 0)
(1.15734 0.199977 1.01559e-16)
(1.17247 0.201688 1.01814e-16)
(1.18801 0.202171 1.24964e-22)
(1.20377 0.201422 9.9404e-17)
(1.21956 0.199467 0)
(1.23522 0.196344 4.98116e-17)
(1.25068 0.192122 4.9912e-17)
(1.26531 0.187023 -2.50207e-17)
(1.1293 0.184064 1.02628e-16)
(1.14308 0.187696 -1.02042e-16)
(1.15693 0.190147 1.01475e-16)
(1.17102 0.191532 -1.00198e-16)
(1.18548 0.191827 1.99569e-16)
(1.20013 0.191033 -9.86548e-17)
(1.21484 0.189181 -7.80745e-19)
(1.22947 0.186311 -3.89478e-19)
(1.24398 0.18249 -4.93795e-17)
(1.25779 0.177926 2.48548e-17)
(1.13026 0.175547 0)
(1.14311 0.178694 1.01908e-16)
(1.15603 0.180784 -1.01392e-16)
(1.1692 0.181916 -7.88652e-19)
(1.1827 0.182076 -9.89996e-17)
(1.19638 0.181267 -7.83248e-19)
(1.21014 0.179522 -7.81212e-19)
(1.22385 0.176879 7.79625e-19)
(1.23749 0.173405 4.98186e-17)
(1.25054 0.169295 2.48831e-17)
(1.13064 0.167317 1.02643e-16)
(1.14265 0.170062 -3.97556e-19)
(1.15474 0.17186 0)
(1.16708 0.172797 0)
(1.17973 0.172861 7.85711e-19)
(1.19255 0.172061 -5.17115e-17)
(1.20546 0.170425 1.29973e-23)
(1.21834 0.16799 5.03277e-17)
(1.23121 0.164822 3.89607e-19)
(1.24356 0.161103 -2.49113e-17)
(1.13053 0.159379 -1.02053e-16)
(1.14178 0.161791 -1.01639e-16)
(1.15313 0.163352 -1.01226e-16)
(1.16473 0.164138 -7.88059e-19)
(1.17661 0.164138 1.28331e-23)
(1.18867 0.163362 5.01615e-17)
(1.20081 0.161836 7.82189e-19)
(1.21296 0.159595 9.62977e-23)
(1.22512 0.1567 0)
(1.23682 0.153324 0)
(1.13002 0.151735 -1.02261e-16)
(1.14059 0.153868 2.03408e-16)
(1.15127 0.155239 1.01144e-16)
(1.1622 0.155907 0)
(1.1734 0.155867 -9.97877e-17)
(1.18476 0.155126 4.93944e-17)
(1.19622 0.153709 0)
(1.20771 0.151648 -5.04124e-17)
(1.21922 0.149 -2.45949e-17)
(1.23034 0.145927 0)
(1.12918 0.144382 1.02071e-16)
(1.13913 0.146284 -1.01768e-16)
(1.14921 0.147499 0)
(1.15953 0.148077 1.00009e-16)
(1.17011 0.148013 1.00574e-16)
(1.18086 0.147315 -1.00391e-16)
(1.1917 0.146006 -4.93383e-17)
(1.20258 0.144112 0)
(1.21351 0.141689 2.50106e-17)
(1.22409 0.138887 0)
(1.12808 0.137317 1.01484e-16)
(1.13747 0.139025 0)
(1.147 0.140113 0)
(1.15678 0.140621 -9.99709e-17)
(1.1668 0.140547 -1.07623e-23)
(1.17698 0.139897 4.86433e-17)
(1.18727 0.13869 5.0936e-17)
(1.1976 0.136953 -3.91451e-19)
(1.20799 0.134735 1.95598e-19)
(1.21807 0.132178 1.95509e-19)
(1.12676 0.130532 -2.02591e-16)
(1.13566 0.132078 1.01106e-16)
(1.14469 0.133063 7.88239e-19)
(1.15397 0.133518 -7.86879e-19)
(1.16348 0.133442 -5.02877e-17)
(1.17315 0.132841 0)
(1.18293 0.131734 0)
(1.19276 0.130142 5.01483e-17)
(1.20266 0.128112 0)
(1.21228 0.125776 0)
(1.12529 0.124021 1.01503e-16)
(1.13372 0.12543 -1.01368e-16)
(1.1423 0.126329 7.87594e-19)
(1.15113 0.126744 -1.02255e-16)
(1.16018 0.126673 5.10738e-17)
(1.16938 0.126123 0)
(1.1787 0.125109 -7.84593e-19)
(1.18808 0.123652 -4.97984e-17)
(1.19752 0.121794 1.95996e-19)
(1.20672 0.11966 1.95955e-19)
(1.12369 0.117773 -1.01314e-16)
(1.13171 0.119067 3.93912e-19)
(1.13988 0.119896 -1.0073e-16)
(1.1483 0.12028 1.00643e-16)
(1.15692 0.120219 7.8575e-19)
(1.1657 0.119718 -7.85368e-19)
(1.17459 0.118793 4.94601e-17)
(1.18354 0.117461 7.84893e-19)
(1.19257 0.115761 0)
(1.20138 0.11381 0)
(1.122 0.111778 -3.93198e-19)
(1.12965 0.112975 1.01102e-16)
(1.13744 0.113745 1.00648e-16)
(1.14548 0.114106 -1.01391e-16)
(1.15372 0.114058 5.10743e-17)
(1.1621 0.113606 0)
(1.1706 0.112763 -5.02762e-17)
(1.17917 0.111546 -3.92774e-19)
(1.18781 0.109992 3.92788e-19)
(1.19627 0.108209 0)
(1.12026 0.106027 3.93029e-19)
(1.12755 0.107139 -1.0097e-16)
(1.13501 0.107861 -1.00565e-16)
(1.1427 0.108205 1.00567e-16)
(1.15058 0.108171 -1.00577e-16)
(1.15861 0.107766 0)
(1.16675 0.107 0)
(1.17496 0.10589 -3.93106e-19)
(1.18325 0.10447 -2.49674e-17)
(1.19136 0.102839 2.53649e-17)
(1.11847 0.100507 9.99698e-17)
(1.12546 0.101548 -1.00053e-16)
(1.1326 0.102228 1.00483e-16)
(1.13997 0.102559 -5.10495e-17)
(1.14753 0.102541 7.85795e-19)
(1.15523 0.10218 0)
(1.16304 0.101486 -5.03382e-17)
(1.17092 0.100475 -3.93438e-19)
(1.17887 0.0991771 2.55832e-17)
(1.18668 0.0976868 -2.51971e-17)
(1.11667 0.095209 0)
(1.12337 0.0961862 1.00314e-16)
(1.13023 0.0968316 -1.00401e-16)
(1.13731 0.0971526 5.10301e-17)
(1.14456 0.0971505 4.95033e-17)
(1.15196 0.0968312 0)
(1.15946 0.0962044 4.95822e-17)
(1.16704 0.0952837 3.93778e-19)
(1.17469 0.0940987 1.96998e-19)
(1.1822 0.0927369 1.97079e-19)
(1.11487 0.0901206 3.90592e-19)
(1.12131 0.0910424 -3.91341e-19)
(1.12791 0.0916572 1.00319e-16)
(1.13472 0.0919706 7.84774e-19)
(1.1417 0.0919843 -5.02891e-17)
(1.14881 0.091704 4.95611e-17)
(1.15603 0.0911391 -4.96128e-17)
(1.16332 0.090302 2.40404e-17)
(1.17069 0.0892207 5.91591e-19)
(1.17793 0.0879766 -1.97305e-19)
(1.11309 0.0852312 9.94181e-17)
(1.11929 0.0861038 3.90829e-19)
(1.12564 0.0866915 0)
(1.13221 0.0869988 0)
(1.13893 0.0870276 2.34708e-23)
(1.14579 0.0867837 -5.03647e-17)
(1.15275 0.0862758 1.00075e-16)
(1.15978 0.0855157 3.94458e-19)
(1.16688 0.0845296 1.97401e-19)
(1.17387 0.0833936 1.28395e-17)
(1.11134 0.0805303 -9.92355e-17)
(1.11731 0.0813583 -3.90319e-19)
(1.12345 0.0819217 -5.00771e-17)
(1.12978 0.0822238 0)
(1.13627 0.0822667 5.02893e-17)
(1.14289 0.0820564 0)
(1.14961 0.081601 -4.9674e-17)
(1.1564 0.0809118 -2.64498e-17)
(1.16325 0.0800132 3.95203e-19)
(1.17001 0.0789765 1.3453e-23)
(1.10962 0.0760072 -9.983e-17)
(1.11539 0.0767945 3.8981e-19)
(1.12133 0.0773355 5.00361e-17)
(1.12745 0.0776327 -7.83872e-19)
(1.13373 0.0776887 7.85774e-19)
(1.14012 0.0775092 0)
(1.14662 0.0771021 -7.88959e-19)
(1.15318 0.0764781 3.95112e-19)
(1.1598 0.0756599 1.97806e-19)
(1.16634 0.0747143 -1.24731e-17)
(1.10795 0.0716517 9.88716e-17)
(1.11354 0.0724012 3.89301e-19)
(1.11929 0.0729213 -7.8117e-19)
(1.12521 0.0732137 1.56715e-18)
(1.13129 0.0732814 -7.85774e-19)
(1.13748 0.0731301 0)
(1.14377 0.0727672 -2.52624e-17)
(1.15012 0.072203 0)
(1.15653 0.0714589 0)
(1.16287 0.0705971 1.26857e-17)
(1.10633 0.0674541 4.95386e-17)
(1.11175 0.068168 0)
(1.11733 0.068668 0)
(1.12308 0.0689554 -7.83269e-19)
(1.12897 0.0690333 -4.95035e-17)
(1.13497 0.0689075 0)
(1.14107 0.0685851 2.60679e-17)
(1.14722 0.0680758 -1.18733e-18)
(1.15344 0.0673997 3.96421e-19)
(1.15958 0.066615 -1.27004e-17)
(1.10478 0.0634047 -9.92823e-17)
(1.11004 0.0640846 3.88287e-19)
(1.11546 0.064565 7.7989e-19)
(1.12104 0.064847 -5.1676e-17)
(1.12676 0.0649337 1.0215e-16)
(1.13259 0.0648308 -7.88266e-19)
(1.13851 0.0645454 2.52936e-17)
(1.14448 0.0640863 -3.96112e-19)
(1.15051 0.0634729 1.98416e-19)
(1.15648 0.0627591 1.98673e-19)
(1.10329 0.0594941 4.8972e-17)
(1.10841 0.0601414 3.87782e-19)
(1.11367 0.0606024 0)
(1.11911 0.0608782 4.93081e-17)
(1.12467 0.0609721 -4.95034e-17)
(1.13034 0.0608899 2.52328e-17)
(1.13609 0.0606379 1.82432e-24)
(1.1419 0.0602251 -3.96448e-19)
(1.14776 0.0596692 3.97237e-19)
(1.15356 0.0590207 0)
(1.10186 0.0557136 -3.849e-19)
(1.10685 0.0563289 3.87277e-19)
(1.11198 0.0567705 0)
(1.11728 0.0570394 -5.00713e-17)
(1.12269 0.0571391 7.85764e-19)
(1.12821 0.057075 -5.12712e-17)
(1.13381 0.0568535 -2.53248e-17)
(1.13946 0.0564829 -2.57911e-17)
(1.14517 0.0559801 1.98825e-19)
(1.15082 0.0553917 1.99133e-19)
(1.10051 0.0520544 -4.95616e-17)
(1.10538 0.0526383 4.98936e-17)
(1.11039 0.0530603 0)
(1.11555 0.0533215 5.0834e-17)
(1.12083 0.0534253 -7.85768e-19)
(1.12621 0.0533772 2.52496e-17)
(1.13167 0.0531833 0)
(1.13718 0.0528514 2.50188e-17)
(1.14273 0.0523972 5.97083e-19)
(1.14824 0.0518644 -1.99364e-19)
(1.09923 0.0485082 4.87043e-17)
(1.10398 0.0490609 3.86229e-19)
(1.10888 0.049463 7.77335e-19)
(1.11392 0.0497155 -7.81761e-19)
(1.11908 0.049822 0)
(1.12434 0.0497878 2.5258e-17)
(1.12966 0.0496187 -2.61484e-17)
(1.13504 0.0493222 2.5835e-17)
(1.14046 0.048913 1.99235e-19)
(1.14584 0.0484313 1.29736e-17)
(1.09803 0.0450669 -4.89984e-17)
(1.10268 0.0455885 -4.93784e-17)
(1.10747 0.0459703 0)
(1.1124 0.0462132 0)
(1.11745 0.046321 0)
(1.12259 0.0462987 -5.05328e-17)
(1.12779 0.046152 7.92862e-19)
(1.13305 0.0458878 -2.66526e-17)
(1.13834 0.0455199 3.98878e-19)
(1.1436 0.0450855 -1.27889e-17)
(1.0969 0.0417229 -3.82059e-19)
(1.10146 0.0422133 3.85269e-19)
(1.10615 0.0425742 -7.7606e-19)
(1.11099 0.0428066 7.81154e-19)
(1.11593 0.0429143 7.85754e-19)
(1.12096 0.0429021 -7.89835e-19)
(1.12606 0.0427754 2.4594e-17)
(1.1312 0.0425407 3.98142e-19)
(1.13638 0.042211 3.9929e-19)
(1.14152 0.0418203 0)
(1.09585 0.0384687 4.8439e-17)
(1.10032 0.0389277 3.84769e-19)
(1.10493 0.0392671 2.48136e-17)
(1.10967 0.0394881 7.80845e-19)
(1.11452 0.0395944 -4.86464e-24)
(1.11945 0.0395906 -7.90097e-19)
(1.12445 0.0394817 0)
(1.12949 0.0392741 0)
(1.13456 0.0389794 1.27905e-17)
(1.1396 0.0386293 0)
(1.09487 0.035297 3.80716e-19)
(1.09927 0.0357243 -3.8427e-19)
(1.1038 0.0360417 -2.55681e-17)
(1.10846 0.0362504 4.66782e-24)
(1.11322 0.036354 7.8575e-19)
(1.11806 0.036357 2.52915e-17)
(1.12296 0.0362641 2.54187e-17)
(1.12791 0.0360811 -3.98816e-19)
(1.13288 0.0358189 -1.24036e-17)
(1.13783 0.0355063 0)
(1.09398 0.032201 -3.80025e-19)
(1.09831 0.0325963 3.83772e-19)
(1.10277 0.032891 -2.47729e-17)
(1.10735 0.0330866 0)
(1.11203 0.0331863 0)
(1.11679 0.0331946 0)
(1.12161 0.0331158 -2.54344e-17)
(1.12646 0.0329554 -1.31722e-17)
(1.13135 0.0327232 4.00532e-19)
(1.13621 0.0324455 0)
(1.09317 0.0291739 -3.79336e-19)
(1.09743 0.0295368 3.83275e-19)
(1.10182 0.0298082 2.39791e-17)
(1.10634 0.0299898 4.4875e-24)
(1.11094 0.0300846 7.85741e-19)
(1.11563 0.0300969 0)
(1.12037 0.0300306 7.95312e-19)
(1.12515 0.0298908 1.15854e-17)
(1.12995 0.0296865 -1.24293e-17)
(1.13474 0.0294413 0)
(1.09243 0.0262093 0)
(1.09664 0.0265392 2.44978e-17)
(1.10097 0.0267868 2.47322e-17)
(1.10542 0.0269536 -7.79626e-19)
(1.10997 0.0270425 7.85735e-19)
(1.11458 0.0270575 0)
(1.11926 0.0270023 1.35287e-17)
(1.12397 0.0268814 -1.19952e-18)
(1.1287 0.0267029 1.30443e-17)
(1.13341 0.0264881 2.01228e-19)
(1.09177 0.0233008 -3.77965e-19)
(1.09593 0.0235973 -2.40838e-17)
(1.10021 0.0238205 -2.39397e-17)
(1.10461 0.0239717 -4.34262e-24)
(1.10909 0.0240539 -7.85729e-19)
(1.11365 0.0240705 0)
(1.11826 0.024025 -1.35371e-17)
(1.12291 0.0239214 4.00185e-19)
(1.12757 0.0237671 6.02669e-19)
(1.13222 0.0235806 -2.01463e-19)
(1.09119 0.0204423 3.77282e-19)
(1.0953 0.0207049 -3.8179e-19)
(1.09954 0.020903 0)
(1.10389 0.021038 0)
(1.10832 0.0211126 0)
(1.11283 0.0211299 -1.26666e-17)
(1.11738 0.0210929 -1.27486e-17)
(1.12197 0.0210054 -4.00522e-19)
(1.12658 0.0208735 2.011e-19)
(1.13117 0.0207137 2.01699e-19)
(1.09068 0.0176275 -3.76601e-19)
(1.09476 0.0178558 3.81297e-19)
(1.09896 0.0180283 1.31066e-17)
(1.10326 0.0181466 -1.32381e-17)
(1.10765 0.0182129 0)
(1.11211 0.01823 2.53416e-17)
(1.11662 0.0182006 1.27565e-17)
(1.12116 0.0181278 6.01299e-18)
(1.12571 0.0180171 -6.24053e-18)
(1.13025 0.0178824 2.01936e-19)
(1.09025 0.0148507 -1.24055e-17)
(1.0943 0.0150441 1.25665e-17)
(1.09846 0.0151907 -1.23255e-17)
(1.10273 0.0152916 2.41305e-17)
(1.10709 0.015349 7.85709e-19)
(1.1115 0.0153653 -2.53499e-17)
(1.11597 0.0153425 6.38219e-18)
(1.12047 0.0152834 -6.82055e-18)
(1.12498 0.0151925 6.85159e-18)
(1.12947 0.0150816 0)
(1.08989 0.0121059 1.23831e-17)
(1.09392 0.0122641 -3.80315e-19)
(1.09805 0.0123843 -7.69711e-19)
(1.10229 0.0124675 -1.16715e-17)
(1.10662 0.0125155 0)
(1.111 0.0125302 1.26791e-17)
(1.11543 0.0125133 -7.1844e-18)
(1.11989 0.012467 -5.22018e-18)
(1.12436 0.0123948 -6.05183e-19)
(1.12882 0.0123064 2.0241e-19)
(1.08961 0.00938722 -1.19863e-17)
(1.09361 0.00950996 -2.10586e-24)
(1.09773 0.00960354 7.69078e-19)
(1.10195 0.00966879 -1.55558e-18)
(1.10624 0.00970699 1.57138e-18)
(1.1106 0.00971952 -7.13434e-18)
(1.115 0.00970775 5.59132e-18)
(1.11943 0.00967325 3.61707e-18)
(1.12387 0.00961884 3.83682e-18)
(1.1283 0.00955182 -2.02648e-19)
(1.08939 0.00668895 1.15908e-17)
(1.09339 0.00677599 -1.17593e-17)
(1.09749 0.00684273 0)
(1.10169 0.00688965 0)
(1.10596 0.00691759 7.8568e-19)
(1.1103 0.00692746 5.55075e-18)
(1.11468 0.00692017 -6.39403e-18)
(1.11909 0.00689681 2.81569e-18)
(1.12351 0.00685933 -3.03223e-18)
(1.12791 0.00681286 2.02887e-19)
(1.08925 0.00400528 3.73225e-19)
(1.09324 0.0040563 -3.78844e-19)
(1.09733 0.00409581 3.07126e-18)
(1.10152 0.00412397 -7.77173e-19)
(1.10578 0.00414115 3.14269e-18)
(1.1101 0.00414782 -2.37967e-18)
(1.11447 0.00414447 0)
(1.11886 0.00413169 -4.02585e-19)
(1.12326 0.00411059 4.04722e-19)
(1.12765 0.00408415 -8.12503e-19)
(1.08918 0.00133213 -3.73583e-19)
(1.09316 0.001348 3.79433e-19)
(1.09725 0.00136056 -3.84715e-18)
(1.10143 0.00136976 7.79205e-19)
(1.10569 0.00137565 -1.57616e-18)
(1.11001 0.00137835 1.59195e-18)
(1.11436 0.00137796 0)
(1.11875 0.00137463 -4.04238e-19)
(1.12314 0.00136868 2.03238e-19)
(1.12752 0.00136102 1.02019e-18)
(1.94213 0.0422305 0)
(1.11765 0.00976865 0)
(0.966312 0.0174711 0)
(1.03975 0.0383089 0)
(1.0586 0.047948 0)
(1.05167 0.0547897 0)
(1.0481 0.0634407 0)
(1.04717 0.0730128 0)
(1.046 0.0829556 0)
(1.04448 0.0934907 0)
(1.04298 0.104834 0)
(1.04165 0.117097 0)
(1.04058 0.130382 0)
(1.03991 0.144802 0)
(1.03983 0.160467 0)
(1.04055 0.177465 0)
(1.04232 0.195837 0)
(1.04553 0.215518 0)
(1.05069 0.236169 0)
(1.05743 0.256435 0)
(1.95013 0.0272149 0)
(1.10102 0.0147674 0)
(0.969145 0.0223637 0)
(1.04515 0.03835 0)
(1.05969 0.0478479 0)
(1.05242 0.0555228 0)
(1.04991 0.0643739 0)
(1.04958 0.0739308 0)
(1.04887 0.0838698 0)
(1.04796 0.0943637 0)
(1.04718 0.105582 0)
(1.04664 0.117621 0)
(1.04645 0.130569 0)
(1.04674 0.144515 0)
(1.04769 0.159539 0)
(1.04954 0.175693 0)
(1.05252 0.19297 0)
(1.05702 0.211209 0)
(1.06343 0.229853 0)
(1.07088 0.247313 0)
(1.95472 0.0164324 0)
(1.09213 0.0187651 0)
(0.967959 0.0261912 0)
(1.04628 0.0380239 0)
(1.05969 0.0474346 0)
(1.05268 0.0558861 0)
(1.05101 0.0648893 0)
(1.0513 0.0743846 0)
(1.05114 0.0842739 0)
(1.05086 0.0946785 0)
(1.05078 0.10572 0)
(1.051 0.117481 0)
(1.05161 0.130035 0)
(1.05275 0.143449 0)
(1.05462 0.157774 0)
(1.0574 0.173028 0)
(1.06134 0.189163 0)
(1.06673 0.205974 0)
(1.07391 0.222862 0)
(1.0821 0.238358 0)
(1.9584 0.011634 0)
(1.0876 0.0192373 0)
(0.965962 0.0271192 0)
(1.04594 0.0374265 0)
(1.05926 0.0469077 0)
(1.05259 0.0558012 0)
(1.05158 0.0649222 0)
(1.05247 0.0743963 0)
(1.0529 0.0842337 0)
(1.05324 0.094527 0)
(1.05383 0.105371 0)
(1.05474 0.116838 0)
(1.05608 0.128988 0)
(1.05799 0.141868 0)
(1.06064 0.155508 0)
(1.06421 0.169902 0)
(1.0689 0.184978 0)
(1.07496 0.200524 0)
(1.08266 0.215976 0)
(1.0914 0.229947 0)
(1.9618 0.00955173 0)
(1.08531 0.0187052 0)
(0.96438 0.0269627 0)
(1.04539 0.0367035 0)
(1.05878 0.0461811 0)
(1.05237 0.0552849 0)
(1.05186 0.0644851 0)
(1.05329 0.0739423 0)
(1.05425 0.0837086 0)
(1.05517 0.0938632 0)
(1.05636 0.104485 0)
(1.05791 0.115636 0)
(1.05991 0.127364 0)
(1.06249 0.139702 0)
(1.06581 0.152662 0)
(1.07002 0.166223 0)
(1.07531 0.180301 0)
(1.08188 0.194686 0)
(1.08995 0.208856 0)
(1.09903 0.221506 0)
(1.96514 0.00859289 0)
(1.08429 0.0181586 0)
(0.963351 0.0265277 0)
(1.04497 0.0359204 0)
(1.05844 0.0452966 0)
(1.0522 0.0544576 0)