/*--------------------------------*- C++ -*----------------------------------*\
  =========                 |
  \\      /  F ield         | OpenFOAM: The Open Source CFD Toolbox
   \\    /   O peration     | Website:  https://openfoam.org
    \\  /    A nd           | Version:  6
     \\/     M anipulation  |
\*---------------------------------------------------------------------------*/
FoamFile
{
    version     2.0;
    format      ascii;
    class       surfaceScalarField;
    location    "0.15";
    object      phi;
}
// * * * * * * * * * * * * * * * * * * * * * * * * * * * * * * * * * * * * * //

dimensions      [0 3 -1 0 0 0 0];

internalField   nonuniform List<scalar> 
11030
(
0.000112489
-2.33345e-07
0.000112618
-1.28932e-07
0.000112685
-6.67947e-08
0.000112688
-3.38206e-09
0.000112611
7.66427e-08
0.00011245
1.61801e-07
0.0001122
2.49431e-07
0.000111858
3.42667e-07
0.000111414
4.43765e-07
0.00011086
5.53996e-07
0.000110185
6.74741e-07
0.000109377
8.07685e-07
0.000108423
9.54707e-07
0.000107305
1.11786e-06
0.000106005
1.29932e-06
0.000104504
1.50119e-06
0.000102779
1.72484e-06
0.00010081
1.96943e-06
9.8581e-05
2.22901e-06
2.48352e-06
9.60975e-05
0.000112422
-3.95561e-07
0.000112525
-2.32013e-07
0.000112562
-1.04172e-07
0.00011252
3.90261e-08
0.000112396
2.00922e-07
0.000112187
3.70026e-07
0.00011189
5.46392e-07
0.000111498
7.34868e-07
0.000111003
9.38954e-07
0.000110396
1.16128e-06
0.000109666
1.40476e-06
0.000108801
1.67278e-06
0.000107786
1.96905e-06
0.000106606
2.29761e-06
0.000105243
2.66272e-06
0.000103676
3.06845e-06
0.000101883
3.51739e-06
9.9845e-05
4.00774e-06
9.75463e-05
4.5277e-06
5.04175e-06
9.4988e-05
0.000112394
-5.20447e-07
0.000112438
-2.75968e-07
0.000112417
-8.39188e-08
0.000112323
1.33793e-07
0.000112146
3.77502e-07
0.000111884
6.31579e-07
0.000111534
8.9732e-07
0.000111087
1.18158e-06
0.000110537
1.48923e-06
0.000109874
1.82418e-06
0.000109088
2.19081e-06
0.000108166
2.59406e-06
0.000107096
3.03934e-06
0.000105861
3.53252e-06
0.000104444
4.07976e-06
0.000102826
4.68693e-06
0.000100985
5.3578e-06
9.89031e-05
6.08983e-06
9.65647e-05
6.86609e-06
7.63878e-06
9.39677e-05
0.000112352
-5.90786e-07
0.000112338
-2.62263e-07
0.000112257
-3.34401e-09
0.000112103
2.88368e-07
0.000111867
6.13035e-07
0.000111547
9.51669e-07
0.000111138
1.3064e-06
0.000110634
1.68591e-06
0.000110027
2.09641e-06
0.000109308
2.543e-06
0.000108467
3.03133e-06
0.000107494
3.56773e-06
0.000106374
4.15905e-06
0.000105094
4.8127e-06
0.000103637
5.53642e-06
0.000101986
6.33759e-06
0.000100123
7.22101e-06
9.80295e-05
8.18348e-06
9.56921e-05
9.20347e-06
1.02239e-05
9.3107e-05
0.000112304
-5.98415e-07
0.000112227
-1.84575e-07
0.00011208
1.42861e-07
0.000111861
5.08192e-07
0.000111561
9.12539e-07
0.000111178
1.33444e-06
0.000110708
1.77681e-06
0.000110144
2.24996e-06
0.000109479
2.76131e-06
0.000108705
3.31698e-06
0.000107813
3.92368e-06
0.000106792
4.58885e-06
0.00010563
5.32041e-06
0.000104316
6.12686e-06
0.000102835
7.01708e-06
0.000101173
7.9995e-06
9.93149e-05
9.07959e-06
9.72449e-05
1.02534e-05
9.49531e-05
1.14953e-05
1.27417e-05
9.24352e-05
0.000112252
-5.36027e-07
0.000112104
-3.63101e-08
0.000111886
3.605e-07
0.000111596
7.98396e-07
0.000111228
1.2804e-06
0.000110779
1.78344e-06
0.000110245
2.31119e-06
0.000109619
2.87533e-06
0.000108896
3.48431e-06
0.000108068
4.14506e-06
0.000107127
4.86507e-06
0.000106063
5.65244e-06
0.000104868
6.51574e-06
0.000103531
7.464e-06
0.000102041
8.50662e-06
0.000100388
9.65248e-06
9.85605e-05
1.09073e-05
9.65477e-05
1.22663e-05
9.43429e-05
1.37001e-05
1.51421e-05
9.19425e-05
0.000112195
-3.97099e-07
0.00011197
1.89106e-07
0.000111674
6.55788e-07
0.000111309
1.16399e-06
0.000110869
1.72056e-06
0.00011035
2.30182e-06
0.00010975
2.91191e-06
0.000109061
3.56354e-06
0.00010828
4.26593e-06
0.000107398
5.02656e-06
0.00010641
5.85328e-06
0.000105308
6.75444e-06
0.000104085
7.73862e-06
0.000102734
8.81479e-06
0.000101249
9.99212e-06
9.96221e-05
1.12792e-05
9.78477e-05
1.26816e-05
9.59203e-05
1.41937e-05
9.38367e-05
1.57837e-05
1.73855e-05
9.15933e-05
0.000112135
-1.76697e-07
0.000111825
4.98467e-07
0.000111445
1.03573e-06
0.000111
1.6097e-06
0.000110484
2.23643e-06
0.000109893
2.89252e-06
0.000109223
3.58148e-06
0.00010847
4.31654e-06
0.000107629
5.10742e-06
0.000106694
5.96182e-06
0.000105659
6.88754e-06
0.000104521
7.89259e-06
0.000103275
8.98496e-06
0.000101917
1.01728e-05
0.000100445
1.14642e-05
9.88573e-05
1.28668e-05
9.71534e-05
1.43855e-05
9.53328e-05
1.60144e-05
9.33958e-05
1.77206e-05
1.94466e-05
9.13348e-05
0.000112076
1.23563e-07
0.000111671
9.03369e-07
0.000111198
1.50891e-06
0.000110669
2.13875e-06
0.000110075
2.83088e-06
0.000109408
3.55903e-06
0.000108666
4.32354e-06
0.000107845
5.13789e-06
0.00010694
6.01223e-06
0.000105948
6.95407e-06
0.000104865
7.97064e-06
0.000103688
9.069e-06
0.000102417
1.02559e-05
0.000101053
1.15376e-05
9.95962e-05
1.29205e-05
9.80528e-05
1.44102e-05
9.64279e-05
1.60104e-05
9.47266e-05
1.77157e-05
9.29533e-05
1.94939e-05
2.1287e-05
9.11128e-05
0.000112021
4.99882e-07
0.000111503
1.42201e-06
0.000110938
2.07328e-06
0.000110327
2.7495e-06
0.000109652
3.50632e-06
0.000108907
4.30444e-06
0.000108089
5.14128e-06
0.000107196
6.03112e-06
0.000106224
6.98423e-06
0.00010517
8.00754e-06
0.000104033
9.10727e-06
0.000102814
1.0289e-05
0.000101512
1.15572e-05
0.000100134
1.29157e-05
9.86872e-05
1.43675e-05
9.71825e-05
1.59149e-05
9.56355e-05
1.75574e-05
9.40615e-05
1.92896e-05
9.24576e-05
2.10979e-05
9.08248e-05
2.29197e-05
8.5947e-05
1.01504e-05
7.56688e-05
1.02782e-05
6.5248e-05
1.04208e-05
5.46778e-05
1.05702e-05
4.39706e-05
1.07071e-05
3.31972e-05
1.07734e-05
2.25677e-05
1.06295e-05
1.25875e-05
9.98019e-06
4.31393e-06
8.27358e-06
4.31393e-06
8.49394e-05
2.01991e-05
7.47543e-05
2.04634e-05
6.44265e-05
2.07486e-05
5.3952e-05
2.10446e-05
4.33473e-05
2.13119e-05
3.26879e-05
2.14328e-05
2.21863e-05
2.11312e-05
1.23457e-05
1.98208e-05
4.25805e-06
1.63612e-05
8.57198e-06
8.40286e-05
3.01382e-05
7.39443e-05
3.05477e-05
6.37139e-05
3.0979e-05
5.33356e-05
3.14229e-05
4.28281e-05
3.18194e-05
3.22702e-05
3.19907e-05
2.18787e-05
3.15226e-05
1.21605e-05
2.9539e-05
4.1838e-06
2.43379e-05
1.27558e-05
8.3269e-05
3.99762e-05
7.32788e-05
4.05379e-05
6.31391e-05
4.11188e-05
5.28482e-05
4.17138e-05
4.24249e-05
4.22427e-05
3.195e-05
4.24656e-05
2.16438e-05
4.18289e-05
1.20162e-05
3.91666e-05
4.12717e-06
3.22269e-05
1.6883e-05
8.2685e-05
4.97264e-05
7.27759e-05
5.04471e-05
6.27139e-05
5.11808e-05
5.24953e-05
5.19323e-05
4.21375e-05
5.26005e-05
3.17223e-05
5.28808e-05
2.14736e-05
5.20775e-05
1.19074e-05
4.87328e-05
4.0822e-06
4.00521e-05
2.09652e-05
8.22659e-05
5.9403e-05
7.24234e-05
6.02896e-05
6.24243e-05
6.11799e-05
5.22605e-05
6.20961e-05
4.19469e-05
6.29141e-05
3.15664e-05
6.32612e-05
2.13487e-05
6.22953e-05
1.18188e-05
5.82627e-05
4.04078e-06
4.78301e-05
2.50059e-05
8.19744e-05
6.90218e-05
7.21838e-05
7.00802e-05
6.22324e-05
7.11314e-05
5.21047e-05
7.22238e-05
4.18134e-05
7.32055e-05
3.14441e-05
7.36304e-05
2.12352e-05
7.25042e-05
1.17256e-05
6.77724e-05
3.99012e-06
5.55656e-05
2.8996e-05
8.17502e-05
7.86064e-05
7.19945e-05
7.98358e-05
6.20751e-05
8.10508e-05
5.19641e-05
8.23348e-05
4.16743e-05
8.34952e-05
3.12975e-05
8.40073e-05
2.10849e-05
8.27167e-05
1.15938e-05
7.72635e-05
3.91316e-06
6.32463e-05
3.29092e-05
8.14959e-05
8.82233e-05
7.17539e-05
8.95778e-05
6.18483e-05
9.09564e-05
5.1736e-05
9.24471e-05
4.14361e-05
9.37952e-05
3.10475e-05
9.43959e-05
2.08367e-05
9.29275e-05
1.13798e-05
8.67203e-05
3.78534e-06
7.08408e-05
3.66946e-05
8.09993e-05
9.80489e-05
7.12831e-05
9.9294e-05
6.13731e-05
0.000100866
5.12599e-05
0.00010256
4.09659e-05
0.000104089
3.05917e-05
0.00010477
2.04138e-05
0.000103105
1.10216e-05
9.61126e-05
3.55622e-06
7.83061e-05
4.02508e-05
3.17538e-05
0.000103167
-3.68716e-05
2.66082e-05
0.00010444
2.14856e-05
0.000105989
1.64217e-05
0.000107624
1.15555e-05
0.000108955
7.13998e-06
0.000109186
3.53208e-06
0.000106713
1.1099e-06
9.85348e-05
5.77468e-08
7.93582e-05
4.03085e-05
2.64484e-05
0.000107774
-3.10555e-05
2.17664e-05
0.000109122
1.71027e-05
0.000110653
1.25562e-05
0.000112171
8.28456e-06
0.000113227
4.54099e-06
0.000112929
1.65852e-06
0.000109596
-3.49595e-08
0.000100228
-4.28203e-07
7.97515e-05
3.98803e-05
2.12867e-05
0.000111922
-2.54348e-05
1.7064e-05
0.000113344
1.28779e-05
0.000114839
8.85577e-06
0.000116193
5.1786e-06
0.000116904
2.10347e-06
0.000116004
-5.84722e-08
0.000111758
-1.03339e-06
0.000101203
-8.01e-07
7.95191e-05
3.90793e-05
1.63259e-05
0.000115634
-2.00383e-05
1.25601e-05
0.00011711
8.8556e-06
0.000118543
5.36047e-06
0.000119688
2.27441e-06
0.00011999
-1.43024e-07
0.000118422
-1.60357e-06
0.000113218
-1.89243e-06
0.000101492
-1.0943e-06
7.8721e-05
3.7985e-05
1.16017e-05
0.00011893
-1.48971e-05
8.28255e-06
0.000120429
5.05771e-06
0.000121768
2.08922e-06
0.000122657
-4.11118e-07
0.00012249
-2.18585e-06
0.000120196
-2.97375e-06
0.000114006
-2.62321e-06
0.000101141
-1.32444e-06
7.74222e-05
3.66606e-05
7.13456e-06
0.000121826
-1.00308e-05
4.2487e-06
0.000123315
1.49647e-06
0.00012452
-9.50634e-07
0.000125104
-2.87469e-06
0.000124415
-4.02579e-06
0.000121348
-4.17476e-06
0.000114155
-3.23628e-06
0.000100203
-1.50092e-06
7.56868e-05
3.51597e-05
2.93225e-06
0.000124339
-5.44575e-06
4.65499e-07
0.000125782
-1.82431e-06
0.00012681
-3.75933e-06
0.000127039
-5.12043e-06
0.000125776
-5.67053e-06
0.000121898
-5.21732e-06
0.000113702
-3.74353e-06
9.87292e-05
-1.63278e-06
7.35761e-05
3.35269e-05
-1.00958e-06
0.000126485
-1.13634e-06
-3.07089e-06
0.000127843
-4.90973e-06
0.000128649
-6.34418e-06
0.000128473
-7.15787e-06
0.000126589
-7.13143e-06
0.000121871
-6.11398e-06
0.000112685
-4.15714e-06
9.67724e-05
-1.72819e-06
7.11471e-05
3.17987e-05
-4.70395e-06
0.00012828
2.90933e-06
-6.37291e-06
0.000129512
-7.77127e-06
0.000130047
-8.71544e-06
0.000129417
-8.99595e-06
0.00012687
-8.41706e-06
0.000121292
-6.87463e-06
0.000111142
-4.48857e-06
9.43863e-05
-1.79574e-06
6.84543e-05
3.0003e-05
-8.18014e-06
6.73442e-06
0.000129726
-9.45534e-06
0.000130787
-1.04108e-05
0.000131003
-1.08651e-05
0.000129872
-1.06225e-05
0.000126627
-9.51901e-06
0.000120189
-7.50184e-06
0.000109125
-4.7525e-06
9.1637e-05
-1.85346e-06
6.55553e-05
2.81495e-05
7.96318e-05
-3.75067e-05
-7.89967e-05
8.04881e-05
-3.19117e-05
8.15316e-05
-2.64783e-05
8.27076e-05
-2.12143e-05
8.39723e-05
-1.61617e-05
8.52758e-05
-1.13343e-05
8.65664e-05
-6.73632e-06
8.77942e-05
-2.36416e-06
8.89139e-05
1.78968e-06
5.76392e-06
8.98844e-05
8.027e-05
-3.79574e-05
-7.98193e-05
8.09104e-05
-3.25522e-05
8.17337e-05
-2.73016e-05
8.26954e-05
-2.21761e-05
8.37559e-05
-1.72222e-05
8.4872e-05
-1.24505e-05
8.59992e-05
-7.86349e-06
8.70942e-05
-3.45917e-06
8.81167e-05
7.67229e-07
4.84895e-06
8.90316e-05
8.08118e-05
-3.82086e-05
-8.05607e-05
8.12609e-05
-3.30013e-05
8.18838e-05
-2.79244e-05
8.26468e-05
-2.2939e-05
8.35148e-05
-1.80901e-05
8.44512e-05
-1.33869e-05
8.54183e-05
-8.83059e-06
8.63795e-05
-4.42039e-06
8.73003e-05
-1.53564e-07
3.99746e-06
8.81518e-05
8.12754e-05
-3.83094e-05
-8.11746e-05
8.15582e-05
-3.32841e-05
8.20021e-05
-2.83684e-05
8.25827e-05
-2.35196e-05
8.32712e-05
-1.87787e-05
8.40376e-05
-1.41533e-05
8.48508e-05
-9.64381e-06
8.56805e-05
-5.25008e-06
8.64976e-05
-9.70606e-07
3.21688e-06
8.72781e-05
8.16564e-05
-3.82882e-05
-8.16777e-05
8.17982e-05
-3.34258e-05
8.20863e-05
-2.86565e-05
8.25045e-05
-2.39378e-05
8.30306e-05
-1.93048e-05
8.36408e-05
-1.47634e-05
8.43102e-05
-1.03132e-05
8.5014e-05
-5.95391e-06
8.57282e-05
-1.68483e-06
2.51204e-06
8.64331e-05
8.19566e-05
-3.81592e-05
-8.20855e-05
8.19762e-05
-3.34454e-05
8.21298e-05
-2.88102e-05
8.24066e-05
-2.42146e-05
8.27898e-05
-1.96879e-05
8.32605e-05
-1.52342e-05
8.37993e-05
-1.0852e-05
8.43864e-05
-6.54098e-06
8.50022e-05
-2.30058e-06
1.88393e-06
8.56303e-05
8.21834e-05
-3.79333e-05
-8.24093e-05
8.20954e-05
-3.33575e-05
8.21326e-05
-2.88474e-05
8.22871e-05
-2.43691e-05
8.25459e-05
-1.99467e-05
8.28944e-05
-1.55826e-05
8.33171e-05
-1.12747e-05
8.37984e-05
-7.02229e-06
8.43226e-05
-2.82472e-06
1.33029e-06
8.48762e-05
8.23455e-05
-3.76197e-05
-8.26591e-05
8.21624e-05
-3.31744e-05
8.20982e-05
-2.87831e-05
8.21469e-05
-2.44178e-05
8.22981e-05
-2.00979e-05
8.25402e-05
-1.58247e-05
8.2861e-05
-1.15955e-05
8.32481e-05
-7.40937e-06
8.36888e-05
-3.26547e-06
8.46624e-07
8.41725e-05
8.24516e-05
-3.72271e-05
-8.28442e-05
8.21841e-05
-3.29068e-05
8.20311e-05
-2.86302e-05
8.1988e-05
-2.43747e-05
8.20462e-05
-2.01561e-05
8.21961e-05
-1.59746e-05
8.2428e-05
-1.18275e-05
8.27321e-05
-7.71343e-06
8.30982e-05
-3.63152e-06
4.27221e-07
8.35176e-05
8.25098e-05
-3.67634e-05
-8.29735e-05
8.21672e-05
-3.25642e-05
8.19364e-05
-2.83994e-05
8.18134e-05
-2.42517e-05
8.17908e-05
-2.01335e-05
8.18609e-05
-1.60447e-05
8.20157e-05
-1.19823e-05
8.22472e-05
-7.94485e-06
8.2547e-05
-3.93141e-06
6.57966e-08
8.29085e-05
8.25272e-05
-3.6236e-05
-8.30546e-05
8.21179e-05
-3.21549e-05
8.18187e-05
-2.81002e-05
8.16258e-05
-2.40589e-05
8.15332e-05
-2.00409e-05
8.15341e-05
-1.60457e-05
8.1622e-05
-1.20702e-05
8.17901e-05
-8.11296e-06
8.20318e-05
-4.17315e-06
-2.43951e-07
8.23416e-05
8.25104e-05
-3.56516e-05
-8.30947e-05
8.20419e-05
-3.16864e-05
8.16824e-05
-2.77406e-05
8.14285e-05
-2.38049e-05
8.12747e-05
-1.98872e-05
8.12155e-05
-1.59864e-05
8.12452e-05
-1.20998e-05
8.13582e-05
-8.22595e-06
8.1549e-05
-4.36396e-06
-5.08021e-07
8.18131e-05
8.24651e-05
-3.50166e-05
-8.31001e-05
8.19442e-05
-3.11656e-05
8.15315e-05
-2.73279e-05
8.1224e-05
-2.34974e-05
8.10169e-05
-1.96801e-05
8.09052e-05
-1.58748e-05
8.08843e-05
-1.20789e-05
8.09493e-05
-8.29094e-06
8.10956e-05
-4.51029e-06
-7.31912e-07
8.13195e-05
8.23963e-05
-3.43365e-05
-8.30764e-05
8.18291e-05
-3.05983e-05
8.13695e-05
-2.68684e-05
8.10148e-05
-2.31427e-05
8.0761e-05
-1.94262e-05
8.06035e-05
-1.57174e-05
8.05384e-05
-1.20137e-05
8.05615e-05
-8.31405e-06
8.0669e-05
-4.61773e-06
-9.20551e-07
8.08576e-05
8.23086e-05
-3.36165e-05
-8.30286e-05
8.17003e-05
-2.99901e-05
8.11994e-05
-2.63674e-05
8.08033e-05
-2.27466e-05
8.05083e-05
-1.91313e-05
8.03108e-05
-1.55198e-05
8.0207e-05
-1.191e-05
8.01935e-05
-8.30054e-06
8.02669e-05
-4.69116e-06
-1.07828e-06
8.04247e-05
8.22057e-05
-3.28612e-05
-8.2961e-05
8.15612e-05
-2.93456e-05
8.10238e-05
-2.583e-05
8.05911e-05
-2.2314e-05
8.02601e-05
-1.88002e-05
8.00273e-05
-1.5287e-05
7.98896e-05
-1.17723e-05
7.9844e-05
-8.25494e-06
7.98876e-05
-4.73478e-06
-1.20888e-06
8.00182e-05
8.20911e-05
-3.20747e-05
-8.28776e-05
8.14146e-05
-2.8669e-05
8.08449e-05
-2.52603e-05
8.03801e-05
-2.18491e-05
8.00172e-05
-1.84373e-05
7.97534e-05
-1.50232e-05
7.95858e-05
-1.16048e-05
7.9512e-05
-8.18113e-06
7.95295e-05
-4.75221e-06
-1.31565e-06
7.96362e-05
8.19677e-05
-3.12606e-05
-8.27818e-05
8.12629e-05
-2.79643e-05
8.06648e-05
-2.46622e-05
8.01714e-05
-2.13558e-05
7.97804e-05
-1.80463e-05
7.94892e-05
-1.4732e-05
7.92954e-05
-1.1411e-05
7.91968e-05
-8.08247e-06
7.91911e-05
-4.74658e-06
-1.40142e-06
7.92769e-05
8.18379e-05
-3.04221e-05
-8.26763e-05
8.11081e-05
-2.72345e-05
8.04848e-05
-2.40389e-05
7.99663e-05
-2.08373e-05
7.95505e-05
-1.76305e-05
7.9235e-05
-1.44166e-05
7.9018e-05
-1.11939e-05
7.88974e-05
-7.96186e-06
7.88714e-05
-4.72058e-06
-1.46867e-06
7.89386e-05
8.17039e-05
-2.95622e-05
-8.25639e-05
8.09521e-05
-2.64826e-05
8.03065e-05
-2.33933e-05
7.97657e-05
-2.02965e-05
7.93278e-05
-1.71926e-05
7.89909e-05
-1.40797e-05
7.87533e-05
-1.09563e-05
7.86133e-05
-7.82181e-06
7.85692e-05
-4.67656e-06
-1.51953e-06
7.86201e-05
8.15676e-05
-2.86833e-05
-8.24465e-05
8.07962e-05
-2.57112e-05
8.01309e-05
-2.27279e-05
7.95703e-05
-1.97359e-05
7.91129e-05
-1.67352e-05
7.8757e-05
-1.37238e-05
7.85011e-05
-1.07004e-05
7.83438e-05
-7.66449e-06
7.82837e-05
-4.61654e-06
-1.55585e-06
7.83201e-05
8.14304e-05
-2.77875e-05
-8.23261e-05
8.06417e-05
-2.49225e-05
7.99589e-05
-2.20451e-05
7.93807e-05
-1.91578e-05
7.8906e-05
-1.62604e-05
7.85331e-05
-1.3351e-05
7.82609e-05
-1.04282e-05
7.80883e-05
-7.49183e-06
7.8014e-05
-4.5423e-06
-1.57925e-06
7.80374e-05
8.12937e-05
-2.68769e-05
-8.22043e-05
8.04897e-05
-2.41185e-05
7.97912e-05
-2.13467e-05
7.91975e-05
-1.85641e-05
7.87072e-05
-1.57701e-05
7.83193e-05
-1.2963e-05
7.80326e-05
-1.01416e-05
7.78463e-05
-7.30548e-06
7.77594e-05
-4.45537e-06
-1.59112e-06
7.77712e-05
8.11585e-05
-2.59531e-05
-8.20823e-05
8.03409e-05
-2.33008e-05
7.96286e-05
-2.06344e-05
7.90209e-05
-1.79564e-05
7.85169e-05
-1.5266e-05
7.81155e-05
-1.25616e-05
7.78159e-05
-9.84197e-06
7.76173e-05
-7.1069e-06
7.7519e-05
-4.35711e-06
-1.59271e-06
7.75206e-05
8.10258e-05
-2.50176e-05
-8.19613e-05
8.0196e-05
-2.2471e-05
7.94714e-05
-1.99098e-05
7.88513e-05
-1.73363e-05
7.83349e-05
-1.47496e-05
7.79214e-05
-1.21482e-05
7.76103e-05
-9.53078e-06
7.74007e-05
-6.89738e-06
7.72923e-05
-4.24872e-06
-1.5851e-06
7.72847e-05
8.08963e-05
-2.40717e-05
-8.18422e-05
8.00557e-05
-2.16304e-05
7.932e-05
-1.91742e-05
7.86888e-05
-1.67051e-05
7.81614e-05
-1.42222e-05
7.77371e-05
-1.17239e-05
7.74155e-05
-9.20921e-06
7.71962e-05
-6.67804e-06
7.70787e-05
-4.13123e-06
-1.56923e-06
7.70628e-05
8.07705e-05
-2.31166e-05
-8.17257e-05
7.99203e-05
-2.07801e-05
7.91748e-05
-1.84286e-05
7.85336e-05
-1.60639e-05
7.79962e-05
-1.36848e-05
7.75623e-05
-1.129e-05
7.72314e-05
-8.8783e-06
7.70032e-05
-6.44989e-06
7.68775e-05
-4.00557e-06
-1.54595e-06
7.68543e-05
8.0649e-05
-2.21532e-05
-8.16125e-05
7.97902e-05
-1.99213e-05
7.90358e-05
-1.76743e-05
7.83857e-05
-1.54137e-05
7.78394e-05
-1.31386e-05
7.73967e-05
-1.08473e-05
7.70574e-05
-8.53901e-06
7.68213e-05
-6.21379e-06
7.66883e-05
-3.87255e-06
-1.516e-06
7.66584e-05
8.05322e-05
-2.11823e-05
-8.1503e-05
7.96656e-05
-1.90547e-05
7.89033e-05
-1.6912e-05
7.82451e-05
-1.47556e-05
7.76908e-05
-1.25843e-05
7.72403e-05
-1.03968e-05
7.68934e-05
-8.19214e-06
7.66502e-05
-5.97054e-06
7.65105e-05
-3.7329e-06
-1.48003e-06
7.64746e-05
8.04202e-05
-2.02049e-05
-8.13976e-05
7.95467e-05
-1.81812e-05
7.87773e-05
-1.61426e-05
7.81119e-05
-1.40901e-05
7.75504e-05
-1.20228e-05
7.70928e-05
-9.93915e-06
7.67391e-05
-7.83844e-06
7.64894e-05
-5.72083e-06
7.63437e-05
-3.58726e-06
-1.43863e-06
7.63023e-05
8.03135e-05
-1.92216e-05
-8.12968e-05
7.94338e-05
-1.73015e-05
7.86579e-05
-1.53667e-05
7.7986e-05
-1.34182e-05
7.7418e-05
-1.14548e-05
7.6954e-05
-9.47513e-06
7.65941e-05
-7.47857e-06
7.63385e-05
-5.46526e-06
7.61875e-05
-3.4362e-06
-1.39232e-06
7.61412e-05
8.0212e-05
-1.82331e-05
-8.12006e-05
7.93268e-05
-1.64162e-05
7.85452e-05
-1.45851e-05
7.78674e-05
-1.27404e-05
7.72935e-05
-1.08809e-05
7.68236e-05
-9.00533e-06
7.64582e-05
-7.1131e-06
7.61973e-05
-5.20441e-06
7.60414e-05
-3.28024e-06
-1.34157e-06
7.59906e-05
8.01161e-05
-1.72397e-05
-8.11094e-05
7.92258e-05
-1.55259e-05
7.8439e-05
-1.37983e-05
7.77559e-05
-1.20573e-05
7.71766e-05
-1.03017e-05
7.67016e-05
-8.53028e-06
7.63311e-05
-6.74257e-06
7.60654e-05
-4.93876e-06
7.5905e-05
-3.11982e-06
-1.28678e-06
7.58502e-05
8.00256e-05
-1.62422e-05
-8.10231e-05
7.91309e-05
-1.46312e-05
7.83394e-05
-1.30068e-05
7.76515e-05
-1.13693e-05
7.70674e-05
-9.71761e-06
7.65876e-05
-8.05048e-06
7.62125e-05
-6.36744e-06
7.59425e-05
-4.66875e-06
7.5778e-05
-2.95537e-06
-1.22834e-06
7.57196e-05
7.99407e-05
-1.52409e-05
-8.0942e-05
7.9042e-05
-1.37324e-05
7.82463e-05
-1.22112e-05
7.7554e-05
-1.06771e-05
7.69656e-05
-9.1292e-06
7.64815e-05
-7.56638e-06
7.61022e-05
-5.98814e-06
7.58282e-05
-4.39478e-06
7.56601e-05
-2.78725e-06
-1.16657e-06
7.55984e-05
7.98614e-05
-1.42363e-05
-8.08661e-05
7.89591e-05
-1.28301e-05
7.81596e-05
-1.14117e-05
7.74635e-05
-9.98096e-06
7.68711e-05
-8.53686e-06
7.63831e-05
-7.07837e-06
7.6e-05
-5.60506e-06
7.57225e-05
-4.11723e-06
7.5551e-05
-2.61579e-06
-1.10179e-06
7.54862e-05
7.97877e-05
-1.32287e-05
-8.07953e-05
7.88822e-05
-1.19245e-05
7.80793e-05
-1.06088e-05
7.73797e-05
-9.2813e-06
7.67837e-05
-7.94095e-06
7.62922e-05
-6.58683e-06
7.59057e-05
-5.21855e-06
7.56249e-05
-3.83641e-06
7.54504e-05
-2.44131e-06
-1.03427e-06
7.53829e-05
7.97196e-05
-1.22185e-05
-8.07298e-05
7.88112e-05
-1.10161e-05
7.80053e-05
-9.80292e-06
7.73025e-05
-8.57848e-06
7.67034e-05
-7.34182e-06
7.62086e-05
-6.09209e-06
7.5819e-05
-4.82892e-06
7.55352e-05
-3.55262e-06
7.5358e-05
-2.26407e-06
-9.64252e-07
7.5288e-05
7.9657e-05
-1.1206e-05
-8.06695e-05
7.87461e-05
-1.01053e-05
7.79376e-05
-8.99434e-06
7.72319e-05
-7.87283e-06
7.66299e-05
-6.73981e-06
7.61323e-05
-5.59446e-06
7.57398e-05
-4.43647e-06
7.54533e-05
-3.26615e-06
7.52736e-05
-2.08434e-06
-8.91974e-07
7.52013e-05
7.96e-05
-1.01916e-05
-8.06144e-05
7.86869e-05
-9.19218e-06
7.78759e-05
-8.18337e-06
7.71678e-05
-7.16466e-06
7.65631e-05
-6.1352e-06
7.60629e-05
-5.09422e-06
7.56679e-05
-4.04147e-06
7.5379e-05
-2.97724e-06
7.5197e-05
-1.90234e-06
-8.17646e-07
7.51227e-05
7.95484e-05
-9.17552e-06
-8.05645e-05
7.86334e-05
-8.27721e-06
7.78204e-05
-7.3703e-06
7.711e-05
-6.45426e-06
7.6503e-05
-5.52826e-06
7.60004e-05
-4.59164e-06
7.56031e-05
-3.64417e-06
7.5312e-05
-2.68613e-06
7.5128e-05
-1.71828e-06
-7.41462e-07
7.50518e-05
7.95022e-05
-8.15806e-06
-8.05197e-05
7.85857e-05
-7.36063e-06
7.77708e-05
-6.55543e-06
7.70584e-05
-5.74189e-06
7.64494e-05
-4.91927e-06
7.59447e-05
-4.08697e-06
7.55454e-05
-3.2448e-06
7.52523e-05
-2.39304e-06
7.50664e-05
-1.53238e-06
-6.63603e-07
7.49885e-05
7.94615e-05
-7.1395e-06
-8.048e-05
7.85435e-05
-6.44272e-06
7.77271e-05
-5.73899e-06
7.7013e-05
-5.0278e-06
7.64022e-05
-4.30845e-06
7.58957e-05
-3.58043e-06
7.54944e-05
-2.84358e-06
7.51996e-05
-2.09817e-06
7.5012e-05
-1.34482e-06
-5.84243e-07
7.49327e-05
7.9426e-05
-6.1201e-06
-8.04454e-05
7.8507e-05
-5.52371e-06
7.76893e-05
-4.92126e-06
7.69737e-05
-4.31223e-06
7.63613e-05
-3.69604e-06
7.58531e-05
-3.07225e-06
7.54503e-05
-2.44072e-06
7.51538e-05
-1.80171e-06
7.49648e-05
-1.15577e-06
-5.03545e-07
7.48841e-05
7.93959e-05
-5.10013e-06
-8.04158e-05
7.8476e-05
-4.60387e-06
7.76572e-05
-4.10245e-06
7.69404e-05
-3.59542e-06
7.63266e-05
-3.08226e-06
7.5817e-05
-2.56263e-06
7.54127e-05
-2.03642e-06
7.51148e-05
-1.50385e-06
7.49245e-05
-9.65418e-07
-4.21664e-07
7.48426e-05
7.93709e-05
-4.07983e-06
-8.03912e-05
7.84505e-05
-3.68344e-06
7.76308e-05
-3.28281e-06
7.6913e-05
-2.87757e-06
7.62981e-05
-2.46732e-06
7.57872e-05
-2.05177e-06
7.53816e-05
-1.63086e-06
7.50826e-05
-1.20478e-06
7.48911e-05
-7.73923e-07
-3.38756e-07
7.48082e-05
7.93512e-05
-3.05945e-06
-8.03716e-05
7.84304e-05
-2.76263e-06
7.76101e-05
-2.46254e-06
7.68915e-05
-2.1589e-06
7.62756e-05
-1.85141e-06
7.57637e-05
-1.53987e-06
7.5357e-05
-1.22424e-06
7.50569e-05
-9.04661e-07
7.48645e-05
-5.81457e-07
-2.54976e-07
7.47807e-05
7.93366e-05
-2.03922e-06
-8.03569e-05
7.84157e-05
-1.84166e-06
7.7595e-05
-1.64185e-06
7.68757e-05
-1.43961e-06
7.6259e-05
-1.23475e-06
7.57463e-05
-1.02713e-06
7.53388e-05
-8.16745e-07
7.50378e-05
-6.03694e-07
7.48446e-05
-3.8819e-07
-1.70481e-07
7.47601e-05
7.93272e-05
-1.01935e-06
-8.0347e-05
7.84062e-05
-9.20727e-07
7.75853e-05
-8.20939e-07
7.68656e-05
-7.19904e-07
7.62484e-05
-6.17533e-07
7.5735e-05
-5.13765e-07
7.53269e-05
-4.08591e-07
7.50253e-05
-3.02069e-07
7.48314e-05
-1.94307e-07
-8.54322e-08
7.47463e-05
7.93227e-05
-8.03421e-05
7.8402e-05
7.75811e-05
7.68611e-05
7.62436e-05
7.57299e-05
7.53213e-05
7.50192e-05
7.48249e-05
7.47395e-05
7.73762e-05
5.6327e-07
7.73723e-05
1.42598e-06
7.73451e-05
2.10046e-06
7.72885e-05
2.80608e-06
7.72241e-05
3.57074e-06
7.7155e-05
4.37348e-06
7.70803e-05
5.21603e-06
7.70018e-05
6.1096e-06
7.69232e-05
7.06282e-06
7.68488e-05
8.0819e-06
7.67842e-05
9.17193e-06
7.67363e-05
1.03369e-05
7.67142e-05
1.15792e-05
7.67295e-05
1.29004e-05
7.67966e-05
1.43004e-05
7.69338e-05
1.57776e-05
7.71645e-05
1.73267e-05
7.75225e-05
1.89317e-05
7.80778e-05
2.05426e-05
2.20008e-05
7.74093e-05
6.02757e-07
7.74013e-05
1.434e-06
7.73839e-05
2.11787e-06
7.73479e-05
2.84212e-06
7.73061e-05
3.61255e-06
7.72625e-05
4.41703e-06
7.72178e-05
5.26075e-06
7.71743e-05
6.1531e-06
7.71358e-05
7.10132e-06
7.71069e-05
8.11074e-06
7.70935e-05
9.18533e-06
7.7103e-05
1.03274e-05
7.71446e-05
1.15376e-05
7.72302e-05
1.28148e-05
7.73746e-05
1.41561e-05
7.75963e-05
1.55559e-05
7.7919e-05
1.7004e-05
7.83736e-05
1.8477e-05
7.9e-05
1.99162e-05
2.11815e-05
7.74406e-05
6.2121e-07
7.74321e-05
1.44256e-06
7.74222e-05
2.12777e-06
7.74037e-05
2.86062e-06
7.73828e-05
3.63346e-06
7.73631e-05
4.43667e-06
7.73464e-05
5.27742e-06
7.73354e-05
6.16412e-06
7.73339e-05
7.10285e-06
7.73466e-05
8.09802e-06
7.73795e-05
9.15241e-06
7.74401e-05
1.02669e-05
7.75375e-05
1.14402e-05
7.76832e-05
1.26691e-05
7.78913e-05
1.39479e-05
7.81792e-05
1.52681e-05
7.85674e-05
1.66158e-05
7.90794e-05
1.79649e-05
7.97385e-05
1.92572e-05
2.03593e-05
7.74621e-05
6.28763e-07
7.74597e-05
1.44494e-06
7.74588e-05
2.12875e-06
7.74557e-05
2.86371e-06
7.74539e-05
3.63519e-06
7.74567e-05
4.43395e-06
7.7466e-05
5.26808e-06
7.74849e-05
6.14525e-06
7.75171e-05
7.07061e-06
7.75675e-05
8.04765e-06
7.76419e-05
9.07804e-06
7.77475e-05
1.01613e-05
7.78932e-05
1.12945e-05
7.80897e-05
1.24725e-05
7.835e-05
1.36876e-05
7.86893e-05
1.49288e-05
7.9125e-05
1.61802e-05
7.96754e-05
1.74146e-05
8.03562e-05
1.85763e-05
1.9541e-05
7.74797e-05
6.29445e-07
7.74842e-05
1.44045e-06
7.74925e-05
2.12044e-06
7.75034e-05
2.85277e-06
7.75193e-05
3.61936e-06
7.75425e-05
4.41067e-06
7.75757e-05
5.23492e-06
7.76217e-05
6.09923e-06
7.76844e-05
7.00792e-06
7.77684e-05
7.96363e-06
7.78794e-05
8.96703e-06
7.80243e-05
1.00164e-05
7.82113e-05
1.11075e-05
7.84502e-05
1.22336e-05
7.87526e-05
1.33851e-05
7.91317e-05
1.45497e-05
7.96018e-05
1.57101e-05
8.01772e-05
1.68392e-05
8.08687e-05
1.78848e-05
1.87321e-05
7.7495e-05
6.25553e-07
7.7506e-05
1.42939e-06
7.75233e-05
2.10319e-06
7.75468e-05
2.8292e-06
7.75785e-05
3.58775e-06
7.76203e-05
4.36878e-06
7.7675e-05
5.1803e-06
7.77453e-05
6.0289e-06
7.7835e-05
6.91817e-06
7.79487e-05
7.85e-06
7.80916e-05
8.82414e-06
7.82701e-05
9.83788e-06
7.84919e-05
1.08858e-05
7.87656e-05
1.19598e-05
7.91015e-05
1.30493e-05
7.95106e-05
1.41406e-05
8.00048e-05
1.52159e-05
8.05951e-05
1.62488e-05
8.12891e-05
1.71908e-05
1.79357e-05
7.75089e-05
6.18409e-07
7.75258e-05
1.41243e-06
7.75513e-05
2.07773e-06
7.7586e-05
2.79444e-06
7.76317e-05
3.54214e-06
7.76901e-05
4.31034e-06
7.77638e-05
5.10664e-06
7.78556e-05
5.93711e-06
7.7969e-05
6.80472e-06
7.81083e-05
7.71066e-06
7.82786e-05
8.65392e-06
7.84855e-05
9.63091e-06
7.87361e-05
1.06353e-05
7.90379e-05
1.1658e-05
7.93997e-05
1.26875e-05
7.98309e-05
1.37094e-05
8.0341e-05
1.47058e-05
8.09386e-05
1.56512e-05
8.1629e-05
1.65003e-05
1.71553e-05
7.75218e-05
6.08779e-07
7.75439e-05
1.39032e-06
7.75767e-05
2.04498e-06
7.76213e-05
2.74987e-06
7.76791e-05
3.48428e-06
7.77521e-05
4.23739e-06
7.78423e-05
5.01635e-06
7.79528e-05
5.82669e-06
7.80867e-05
6.67084e-06
7.82479e-05
7.54938e-06
7.84412e-05
8.46065e-06
7.86718e-05
9.40034e-06
7.89457e-05
1.03614e-05
7.92696e-05
1.1334e-05
7.9651e-05
1.23061e-05
8.00976e-05
1.32628e-05
8.06171e-05
1.41863e-05
8.12161e-05
1.50522e-05
8.18982e-05
1.58183e-05
1.63944e-05
7.75342e-05
5.97143e-07
7.75607e-05
1.36383e-06
7.75997e-05
2.00592e-06
7.76527e-05
2.69686e-06
7.77211e-05
3.41588e-06
7.78066e-05
4.15197e-06
7.79112e-05
4.91177e-06
7.80375e-05
5.70035e-06
7.81887e-05
6.51963e-06
7.83684e-05
7.36968e-06
7.85807e-05
8.24829e-06
7.88305e-05
9.1506e-06
7.91229e-05
1.0069e-05
7.94638e-05
1.09932e-05
7.98593e-05
1.19106e-05
8.03159e-05
1.28063e-05
8.08395e-05
1.36627e-05
8.14353e-05
1.44564e-05
8.21052e-05
1.51485e-05
1.56554e-05
7.7546e-05
5.83862e-07
7.75762e-05
1.33363e-06
7.76206e-05
1.96149e-06
7.76808e-05
2.63667e-06
7.77581e-05
3.33853e-06
7.78541e-05
4.05597e-06
7.79708e-05
4.79514e-06
7.81104e-05
5.56066e-06
7.8276e-05
6.35403e-06
7.84709e-05
7.17485e-06
7.86987e-05
8.02049e-06
7.89636e-05
8.88566e-06
7.92703e-05
9.76232e-06
7.96236e-05
1.06399e-05
8.00286e-05
1.15055e-05
8.04906e-05
1.23443e-05
8.10142e-05
1.31391e-05
8.16031e-05
1.38675e-05
8.2258e-05
1.44935e-05
1.494e-05
7.75572e-05
5.69231e-07
7.75905e-05
1.30036e-06
7.76394e-05
1.91255e-06
7.77056e-05
2.57048e-06
7.77904e-05
3.25374e-06
7.78952e-05
3.95118e-06
7.80218e-05
4.66855e-06
7.81724e-05
5.41001e-06
7.83498e-05
6.17671e-06
7.85567e-05
6.96788e-06
7.87967e-05
7.78054e-06
7.90733e-05
8.60908e-06
7.93904e-05
9.44518e-06
7.97522e-05
1.02781e-05
8.01629e-05
1.10948e-05
8.06265e-05
1.18807e-05
8.11467e-05
1.26189e-05
8.17258e-05
1.32884e-05
8.23638e-05
1.38554e-05
1.42492e-05
7.7568e-05
5.53501e-07
7.76038e-05
1.26457e-06
7.76564e-05
1.85991e-06
7.77275e-05
2.49938e-06
7.78184e-05
3.16285e-06
7.79303e-05
3.83925e-06
7.8065e-05
4.53389e-06
7.82244e-05
5.25058e-06
7.8411e-05
5.99013e-06
7.86274e-05
6.75148e-06
7.88765e-05
7.53138e-06
7.91616e-05
8.32399e-06
7.9486e-05
9.12083e-06
7.9853e-05
9.91105e-06
8.0266e-05
1.06818e-05
8.07282e-05
1.14185e-05
8.12421e-05
1.2105e-05
8.18094e-05
1.27211e-05
8.24291e-05
1.32358e-05
1.35835e-05
7.75782e-05
5.36894e-07
7.7616e-05
1.22675e-06
7.76716e-05
1.80431e-06
7.77467e-05
2.42435e-06
7.78424e-05
3.06711e-06
7.796e-05
3.72166e-06
7.8101e-05
4.39292e-06
7.82672e-05
5.08435e-06
7.84608e-05
5.7965e-06
7.86842e-05
6.52807e-06
7.894e-05
7.27562e-06
7.92308e-05
8.03315e-06
7.95596e-05
8.79212e-06
7.99289e-05
9.5417e-06
8.03415e-05
1.02691e-05
8.07998e-05
1.09603e-05
8.13055e-05
1.15993e-05
8.18593e-05
1.21673e-05
8.24597e-05
1.26353e-05
1.29431e-05
7.7588e-05
5.19606e-07
7.76274e-05
1.18737e-06
7.76853e-05
1.74641e-06
7.77634e-05
2.34627e-06
7.78628e-05
2.96765e-06
7.79848e-05
3.59975e-06
7.81305e-05
4.24718e-06
7.83018e-05
4.91308e-06
7.85005e-05
5.59778e-06
7.87288e-05
6.29979e-06
7.89888e-05
7.01553e-06
7.92831e-05
7.73893e-06
7.96137e-05
8.46147e-06
7.9983e-05
9.17239e-06
8.0393e-05
9.85917e-06
8.08453e-05
1.05079e-05
8.1341e-05
1.11036e-05
8.18803e-05
1.16281e-05
8.2461e-05
1.20546e-05
1.23276e-05
7.75973e-05
5.01812e-07
7.76379e-05
1.14681e-06
7.76975e-05
1.68679e-06
7.77778e-05
2.26593e-06
7.788e-05
2.86544e-06
7.80051e-05
3.47472e-06
7.81542e-05
4.09806e-06
7.83289e-05
4.73834e-06
7.8531e-05
5.39569e-06
7.87623e-05
6.0685e-06
7.90248e-05
6.75309e-06
7.93203e-05
7.44339e-06
7.96509e-05
8.13093e-06
8.00181e-05
8.80511e-06
8.04236e-05
9.45368e-06
8.08684e-05
1.00632e-05
8.13529e-05
1.0619e-05
8.18768e-05
1.11042e-05
8.24376e-05