/*--------------------------------*- C++ -*----------------------------------*\
  =========                 |
  \\      /  F ield         | OpenFOAM: The Open Source CFD Toolbox
   \\    /   O peration     | Website:  https://openfoam.org
    \\  /    A nd           | Version:  6
     \\/     M anipulation  |
\*---------------------------------------------------------------------------*/
FoamFile
{
    version     2.0;
    format      ascii;
    class       volScalarField;
    location    "1";
    object      p;
}
// * * * * * * * * * * * * * * * * * * * * * * * * * * * * * * * * * * * * * //

dimensions      [0 2 -2 0 0 0 0];

internalField   nonuniform List<scalar> 
5600
(
995.757
996.869
997.763
997.784
997.686
997.673
997.687
997.697
997.703
997.709
997.717
997.725
997.734
997.743
997.754
997.766
997.779
997.794
997.81
997.828
995.705
996.89
997.781
997.784
997.684
997.673
997.688
997.697
997.702
997.708
997.716
997.724
997.733
997.743
997.753
997.765
997.778
997.793
997.809
997.826
995.677
996.897
997.788
997.783
997.682
997.672
997.686
997.695
997.7
997.706
997.713
997.721
997.73
997.739
997.749
997.761
997.773
997.787
997.802
997.818
995.645
996.898
997.793
997.782
997.68
997.669
997.684
997.692
997.697
997.702
997.709
997.716
997.724
997.733
997.743
997.753
997.764
997.777
997.79
997.804
995.606
996.899
997.798
997.781
997.676
997.666
997.681
997.688
997.692
997.697
997.703
997.709
997.716
997.724
997.733
997.742
997.752
997.762
997.774
997.785
995.562
996.9
997.804
997.778
997.672
997.662
997.676
997.682
997.686
997.69
997.695
997.7
997.706
997.713
997.72
997.728
997.736
997.744
997.752
997.761
995.514
996.903
997.811
997.775
997.666
997.657
997.67
997.676
997.678
997.681
997.685
997.69
997.695
997.7
997.705
997.711
997.717
997.722
997.728
997.732
995.462
996.909
997.82
997.771
997.659
997.65
997.663
997.667
997.669
997.671
997.674
997.677
997.681
997.685
997.688
997.692
997.695
997.698
997.7
997.7
995.401
996.921
997.83
997.765
997.65
997.643
997.655
997.658
997.659
997.66
997.662
997.664
997.666
997.669
997.67
997.672
997.672
997.672
997.67
997.666
995.28
996.964
997.847
997.747
997.637
997.635
997.646
997.648
997.647
997.648
997.649
997.65
997.651
997.652
997.652
997.651
997.649
997.646
997.64
997.632
997.851
997.881
997.916
997.956
998.001
998.053
998.112
998.177
998.248
998.418
997.848
997.877
997.911
997.95
997.994
998.044
998.101
998.163
998.23
998.4
997.838
997.866
997.898
997.936
997.978
998.025
998.078
998.136
998.198
998.363
997.821
997.846
997.877
997.911
997.95
997.993
998.041
998.093
998.149
998.306
997.797
997.819
997.847
997.878
997.913
997.951
997.993
998.038
998.086
998.231
997.767
997.785
997.811
997.838
997.868
997.9
997.935
997.971
998.01
998.141
997.732
997.746
997.769
997.792
997.816
997.842
997.868
997.895
997.923
998.037
997.693
997.704
997.723
997.741
997.76
997.778
997.796
997.813
997.831
997.924
997.652
997.659
997.675
997.688
997.7
997.712
997.722
997.73
997.736
997.806
997.609
997.615
997.627
997.635
997.641
997.645
997.646
997.643
997.635
997.681
997.574
997.582
997.586
997.587
997.584
997.576
997.558
997.533
997.504
997.539
997.534
997.538
997.537
997.531
997.521
997.502
997.474
997.437
997.398
997.411
997.492
997.491
997.484
997.472
997.454
997.428
997.392
997.347
997.3
997.291
997.448
997.442
997.429
997.411
997.387
997.354
997.31
997.259
997.206
997.176
997.402
997.392
997.374
997.351
997.321
997.281
997.231
997.174
997.116
997.069
997.357
997.342
997.32
997.292
997.257
997.212
997.157
997.096
997.035
996.972
997.312
997.293
997.267
997.236
997.196
997.148
997.091
997.027
996.963
996.886
997.27
997.247
997.219
997.184
997.142
997.091
997.032
996.967
996.903
996.814
997.23
997.205
997.174
997.138
997.094
997.043
996.983
996.919
996.854
996.754
997.195
997.168
997.136
997.098
997.054
997.002
996.943
996.879
996.814
996.706
997.569
997.528
997.487
997.445
997.403
997.36
997.319
997.281
997.245
997.212
997.556
997.517
997.478
997.439
997.4
997.361
997.324
997.288
997.255
997.225
997.539
997.503
997.467
997.431
997.396
997.361
997.327
997.295
997.265
997.237
997.525
997.491
997.457
997.425
997.392
997.36
997.33
997.3
997.273
997.247
997.512
997.48
997.449
997.419
997.39
997.36
997.332
997.305
997.28
997.256
997.5
997.471
997.442
997.415
997.387
997.36
997.334
997.31
997.286
997.264
997.49
997.462
997.436
997.411
997.385
997.361
997.337
997.314
997.292
997.271
997.48
997.455
997.43
997.407
997.384
997.361
997.338
997.317
997.297
997.277
997.472
997.448
997.426
997.404
997.382
997.361
997.34
997.32
997.301
997.282
997.464
997.442
997.421
997.401
997.381
997.361
997.342
997.323
997.305
997.288
997.457
997.437
997.417
997.398
997.38
997.361
997.343
997.326
997.309
997.292
997.451
997.432
997.414
997.396
997.379
997.361
997.344
997.328
997.312
997.296
997.445
997.428
997.411
997.394
997.378
997.361
997.345
997.33
997.315
997.3
997.44
997.424
997.408
997.392
997.377
997.361
997.346
997.332
997.318
997.303
997.436
997.42
997.405
997.391
997.376
997.361
997.347
997.333
997.32
997.306
997.432
997.417
997.403
997.389
997.375
997.361
997.348
997.335
997.322
997.309
997.428
997.414
997.401
997.388
997.374
997.361
997.349
997.336
997.324
997.312
997.424
997.411
997.399
997.386
997.374
997.361
997.349
997.337
997.326
997.314
997.421
997.409
997.397
997.385
997.373
997.361
997.35
997.339
997.327
997.316
997.418
997.406
997.395
997.384
997.373
997.361
997.35
997.34
997.329
997.318
997.415
997.404
997.393
997.383
997.372
997.361
997.351
997.34
997.33
997.32
997.412
997.402
997.392
997.382
997.371
997.361
997.351
997.341
997.331
997.322
997.41
997.4
997.39
997.381
997.371
997.361
997.351
997.342
997.333
997.323
997.408
997.398
997.389
997.38
997.37
997.361
997.352
997.343
997.334
997.324
997.406
997.397
997.388
997.379
997.37
997.361
997.352
997.343
997.334
997.326
997.404
997.395
997.387
997.378
997.369
997.361
997.352
997.344
997.335
997.327
997.402
997.394
997.386
997.377
997.369
997.361
997.352
997.344
997.336
997.328
997.4
997.392
997.385
997.377
997.369
997.361
997.353
997.345
997.337
997.329
997.399
997.391
997.384
997.376
997.368
997.36
997.353
997.345
997.337
997.33
997.397
997.39
997.383
997.375
997.368
997.36
997.353
997.345
997.338
997.33
997.396
997.389
997.382
997.375
997.367
997.36
997.353
997.346
997.338
997.331
997.395
997.388
997.381
997.374
997.367
997.36
997.353
997.346
997.339
997.332
997.394
997.387
997.38
997.374
997.367
997.36
997.353
997.346
997.339
997.332
997.392
997.386
997.38
997.373
997.366
997.36
997.353
997.346
997.34
997.333
997.391
997.385
997.379
997.373
997.366
997.36
997.353
997.346
997.34
997.333
997.391
997.385
997.378
997.372
997.366
997.359
997.353
997.347
997.34
997.334
997.39
997.384
997.378
997.372
997.366
997.359
997.353
997.347
997.34
997.334
997.389
997.383
997.377
997.371
997.365
997.359
997.353
997.347
997.341
997.335
997.388
997.383
997.377
997.371
997.365
997.359
997.353
997.347
997.341
997.335
997.387
997.382
997.376
997.371
997.365
997.359
997.353
997.347
997.341
997.335
997.387
997.382
997.376
997.37
997.365
997.359
997.353
997.347
997.341
997.335
997.386
997.381
997.376
997.37
997.365
997.359
997.353
997.347
997.341
997.336
997.386
997.381
997.375
997.37
997.364
997.359
997.353
997.347
997.342
997.336
997.385
997.38
997.375
997.37
997.364
997.359
997.353
997.347
997.342
997.336
997.385
997.38
997.375
997.37
997.364
997.359
997.353
997.347
997.342
997.336
997.385
997.38
997.375
997.369
997.364
997.358
997.353
997.347
997.342
997.336
997.385
997.38
997.374
997.369
997.364
997.358
997.353
997.347
997.342
997.336
997.384
997.379
997.374
997.369
997.364
997.358
997.353
997.347
997.342
997.336
997.384
997.379
997.374
997.369
997.364
997.358
997.353
997.347
997.342
997.336
997.384
997.379
997.374
997.369
997.364
997.358
997.353
997.347
997.342
997.336
995.029
997.095
997.884
997.712
997.619
997.628
997.636
997.635
997.634
997.633
997.633
997.632
997.631
997.63
997.627
997.624
997.618
997.611
997.6
997.583
994.917
997.139
997.885
997.689
997.608
997.622
997.629
997.626
997.624
997.623
997.622
997.621
997.619
997.616
997.613
997.608
997.602
997.593
997.582
997.566
994.871
997.139
997.876
997.674
997.599
997.615
997.62
997.617
997.615
997.614
997.612
997.61
997.608
997.604
997.6
997.595
997.588
997.579
997.567
997.552
994.843
997.132
997.868
997.664
997.59
997.606
997.612
997.609
997.606
997.604
997.602
997.6
997.597
997.593
997.588
997.582
997.574
997.565
997.553
997.539
994.822
997.124
997.861
997.655
997.581
997.598
997.603
997.6
997.597
997.595
997.592
997.589
997.586
997.581
997.576
997.569
997.561
997.552
997.54
997.526
994.803
997.115
997.854
997.646
997.573
997.589
997.595
997.591
997.588
997.586
997.583
997.579
997.575
997.57
997.565
997.558
997.55
997.54
997.529
997.515
994.786
997.106
997.847
997.638
997.564
997.581
997.586
997.583
997.579
997.577
997.574
997.57
997.565
997.56
997.554
997.547
997.539
997.529
997.518
997.505
994.769
997.097
997.84
997.63
997.556
997.573
997.578
997.574
997.571
997.568
997.565
997.561
997.556
997.551
997.544
997.537
997.529
997.519
997.508
997.495
994.753
997.089
997.833
997.622
997.548
997.565
997.57
997.566
997.563
997.56
997.556
997.552
997.547
997.541
997.535
997.528
997.519
997.51
997.499
997.487
994.736
997.08
997.826
997.615
997.541
997.558
997.563
997.558
997.555
997.552
997.548
997.543
997.538
997.533
997.526
997.519
997.511
997.501
997.491
997.479
994.72
997.072
997.82
997.608
997.533
997.55
997.555
997.551
997.547
997.544
997.54
997.535
997.53
997.525
997.518
997.511
997.503
997.493
997.483
997.472
994.705
997.063
997.814
997.601
997.526
997.543
997.548
997.543
997.54
997.536
997.532
997.528
997.523
997.517
997.51
997.503
997.495
997.486
997.476
997.465
994.69
997.055
997.808
997.594
997.519
997.536
997.541
997.536
997.532
997.529
997.525
997.52
997.515
997.51
997.503
997.496
997.488
997.479
997.47
997.459
994.675
997.048
997.802
997.587
997.512
997.529
997.534
997.53
997.526
997.522
997.518
997.514
997.508
997.503
997.496
997.489
997.482
997.473
997.464
997.454
994.661
997.04
997.796
997.581
997.506
997.523
997.527
997.523
997.519
997.516
997.512
997.507
997.502
997.496
997.49
997.483
997.476
997.467
997.458
997.449
994.647
997.033
997.791
997.575
997.499
997.516
997.521
997.517
997.513
997.509
997.505
997.501
997.496
997.49
997.484
997.477
997.47
997.462
997.453
997.444
994.633
997.026
997.785
997.569
997.493
997.51
997.515
997.511
997.507
997.503
997.499
997.495
997.49
997.484
997.478
997.472
997.465
997.457
997.449
997.44
994.621
997.019
997.78
997.563
997.488
997.505
997.51
997.505
997.501
997.498
997.494
997.489
997.484
997.479
997.473
997.467
997.46
997.452
997.444
997.436
994.608
997.013
997.775
997.558
997.482
997.499
997.504
997.5
997.496
997.492
997.488
997.484
997.479
997.474
997.468
997.462
997.455
997.448
997.44
997.432
994.596
997.007
997.771
997.553
997.477
997.494
997.499
997.494
997.49
997.487
997.483
997.479
997.474
997.469
997.463
997.457
997.451
997.444
997.436
997.429
994.585
997.001
997.766
997.548
997.472
997.489
997.494
997.489
997.485
997.482
997.478
997.474
997.469
997.464
997.459
997.453
997.447
997.44
997.433
997.425
994.574
996.995
997.762
997.543
997.467
997.484
997.489
997.484
997.481
997.477
997.474
997.47
997.465
997.46
997.455
997.449
997.443
997.436
997.429
997.422
994.564
996.989
997.758
997.538
997.462
997.479
997.484
997.48
997.476
997.473
997.469
997.465
997.461
997.456
997.451
997.445
997.439
997.433
997.426
997.419
994.554
996.984
997.754
997.534
997.458
997.475
997.48
997.476
997.472
997.469
997.465
997.461
997.457
997.452
997.447
997.442
997.436
997.43
997.424
997.417
994.544
996.979
997.75
997.53
997.453
997.471
997.476
997.472
997.468
997.465
997.461
997.457
997.453
997.449
997.444
997.439
997.433
997.427
997.421
997.414
994.535
996.975
997.746
997.526
997.449
997.467
997.472
997.468
997.464
997.461
997.458
997.454
997.45
997.445
997.441
997.435
997.43
997.424
997.418
997.412
994.527
996.97
997.743
997.522
997.445
997.463
997.468
997.464
997.46
997.458
997.454
997.45
997.446
997.442
997.437
997.433
997.427
997.422
997.416
997.41
994.519
996.966
997.74
997.519
997.442
997.459
997.465
997.461
997.457
997.454
997.451
997.447
997.443
997.439
997.435
997.43
997.425
997.419
997.414
997.408
994.511
996.962
997.737
997.515
997.438
997.456
997.461
997.457
997.454
997.451
997.448
997.444
997.44
997.436
997.432
997.427
997.422
997.417
997.412
997.406
994.504
996.958
997.734
997.512
997.435
997.453
997.458
997.454
997.451
997.448
997.445
997.441
997.438
997.434
997.429
997.425
997.42
997.415
997.41
997.404
994.497
996.954
997.731
997.509
997.432
997.45
997.455
997.451
997.448
997.445
997.442
997.439
997.435
997.431
997.427
997.423
997.418
997.413
997.408
997.403
994.49
996.951
997.729
997.506
997.429
997.447
997.453
997.449
997.445
997.443
997.44
997.436
997.433
997.429
997.425
997.421
997.416
997.411
997.406
997.401
994.484
996.948
997.726
997.504
997.427
997.444
997.45
997.446
997.443
997.44
997.437
997.434
997.431
997.427
997.423
997.419
997.414
997.41
997.405
997.4
994.479
996.945
997.724
997.501
997.424
997.442
997.448
997.444
997.44
997.438
997.435
997.432
997.428
997.425
997.421
997.417
997.413
997.408
997.403
997.398
994.473
996.942
997.722
997.499
997.422
997.44
997.445
997.441
997.438
997.436
997.433
997.43
997.426
997.423
997.419
997.415
997.411
997.407
997.402
997.397
994.469
996.94
997.72
997.497
997.419
997.438
997.443
997.439
997.436
997.434
997.431
997.428
997.425
997.421
997.418
997.414
997.41
997.405
997.401
997.396
994.464
996.937
997.718
997.495
997.417
997.436
997.441
997.437
997.434
997.432
997.429
997.426
997.423
997.42
997.416
997.412
997.408
997.404
997.4
997.395
994.46
996.935
997.717
997.493
997.416
997.434
997.439
997.436
997.433
997.43
997.428
997.425
997.422
997.418
997.415
997.411
997.407
997.403
997.399
997.394
994.456
996.933
997.715
997.491
997.414
997.432
997.438
997.434
997.431
997.429
997.426
997.423
997.42
997.417
997.413
997.41
997.406
997.402
997.398
997.393
994.452
996.931
997.714
997.49
997.412
997.431
997.436
997.433
997.43
997.427
997.425
997.422
997.419
997.416
997.412
997.409
997.405
997.401
997.397
997.393
994.449
996.929
997.712
997.489
997.411
997.429
997.435
997.431
997.428
997.426
997.424
997.421
997.418
997.415
997.411
997.408
997.404
997.4
997.396
997.392
994.446
996.928
997.711
997.487
997.41
997.428
997.434
997.43
997.427
997.425
997.422
997.42
997.417
997.414
997.41
997.407
997.403
997.399
997.395
997.391
994.443
996.926
997.71
997.486
997.409
997.427
997.433
997.429
997.426
997.424
997.422
997.419
997.416
997.413
997.409
997.406
997.402
997.399
997.395
997.391
994.441
996.925
997.709
997.485
997.408
997.426
997.432
997.428
997.425
997.423
997.421
997.418
997.415
997.412
997.409
997.405
997.402
997.398
997.394
997.39
994.439
996.924
997.709
997.485
997.407
997.425
997.431
997.427
997.425
997.422
997.42
997.417
997.414
997.411
997.408
997.405
997.401
997.398
997.394
997.39
994.438
996.922
997.708
997.484
997.406
997.425
997.43
997.427
997.424
997.422
997.419
997.417
997.414
997.411
997.408
997.404
997.401
997.397
997.393
997.389
994.439
996.921
997.707
997.484
997.406
997.424
997.43
997.426
997.424
997.421
997.419
997.416
997.413
997.41
997.407
997.404
997.4
997.397
997.393
997.389
994.443
996.919
997.708
997.485
997.406
997.424
997.43
997.426
997.423
997.421
997.419
997.416
997.413
997.41
997.407
997.404
997.4
997.397
997.393
997.389
994.463
996.907
997.707
997.488
997.406
997.423
997.429
997.426
997.423
997.421
997.418
997.416
997.413
997.41
997.407
997.403
997.4
997.396
997.393
997.389
994.535
996.858
997.697
997.496
997.407
997.422
997.429
997.426
997.423
997.421
997.418
997.416
997.413
997.41
997.407
997.403
997.4
997.396
997.393
997.389
997.048
997.012
996.98
996.952
996.921
996.889
996.854
996.817
996.78
996.713
997.052
997.017
996.984
996.956
996.926
996.895
996.862
996.827
996.792
996.733
997.046
997.016
996.986
996.96
996.933
996.903
996.872
996.84
996.807
996.755
997.04
997.014
996.986
996.962
996.937
996.91
996.881
996.851
996.821
996.778
997.034
997.012
996.987
996.964
996.94
996.915
996.888
996.861
996.835
996.8
997.029
997.01
996.988
996.967
996.944
996.92
996.896
996.87
996.847
996.821
997.025
997.008
996.989
996.969
996.948
996.925
996.902
996.879
996.857
996.838
997.023
997.008
996.99
996.971
996.951
996.929
996.907
996.885
996.866
996.852
997.022
997.008
996.991
996.973
996.954
996.933
996.911
996.89
996.872
996.861
997.023
997.009
996.993
996.975
996.955
996.934
996.913
996.892
996.874
996.866
997.032
997.041
997.05
997.059
997.067
997.076
997.084
997.092
997.1
997.107
997.115
997.122
997.129
997.135
997.141
997.148
997.153
997.159
997.164
997.17
997.174
997.179
997.184
997.188
997.192
997.196
997.2
997.204
997.208
997.211
997.214
997.218
997.221
997.224
997.227
997.23
997.232
997.235
997.238
997.241
997.244
997.246
997.249
997.252
997.255
997.258
997.261
997.265
997.269
997.272
997.029
997.037
997.047
997.056
997.065
997.074
997.082
997.09
997.098
997.106
997.113
997.12
997.127
997.134
997.14
997.146
997.152
997.158
997.163
997.169
997.174
997.178
997.183
997.187
997.192
997.196
997.2
997.203
997.207
997.21
997.214
997.217
997.22
997.223
997.226
997.229
997.232
997.235
997.238
997.24
997.243
997.246
997.249
997.252
997.255
997.258
997.261
997.264
997.268
997.271
997.024
997.033
997.043
997.053
997.062
997.071
997.08
997.088
997.096
997.104
997.111
997.119
997.126
997.133
997.139
997.145
997.151
997.157
997.162
997.168
997.173
997.178
997.182
997.187
997.191
997.195
997.199
997.203
997.206
997.21
997.213
997.217
997.22
997.223
997.226
997.229
997.232
997.234
997.237
997.24
997.243
997.245
997.248
997.251
997.254
997.257
997.26
997.263
997.266
997.27
997.019
997.027
997.039
997.05
997.059
997.068
997.077
997.086
997.094
997.102
997.11
997.117
997.124
997.131
997.138
997.144
997.15
997.156
997.161
997.167
997.172
997.177
997.181
997.186
997.19
997.194
997.198
997.202
997.206
997.209
997.213
997.216
997.219
997.222
997.225
997.228
997.231
997.234
997.236
997.239
997.242
997.244
997.247
997.25
997.252
997.255
997.258
997.261
997.264
997.267
997.014
997.021
997.035
997.046
997.056
997.065
997.075
997.084
997.092
997.1
997.108
997.116
997.123
997.13
997.137
997.143
997.149
997.155
997.16
997.166
997.171
997.176
997.181
997.185
997.189
997.194
997.198
997.201
997.205
997.209
997.212
997.215
997.218
997.221
997.224
997.227
997.23
997.233
997.235
997.238
997.241
997.243
997.246
997.248
997.251
997.253
997.256
997.259
997.262
997.264
997.009
997.015
997.03
997.043
997.053
997.063
997.072
997.082
997.09
997.099
997.107
997.114
997.122
997.129
997.135
997.142
997.148
997.154
997.159
997.165
997.17
997.175
997.18
997.184
997.189
997.193
997.197
997.201
997.204
997.208
997.211
997.214
997.217
997.22
997.223
997.226
997.229
997.232
997.234
997.237
997.239
997.242
997.244
997.246
997.249
997.251
997.253
997.256
997.258
997.26
997.005
997.01
997.027
997.04
997.051
997.061
997.071
997.08
997.089
997.098
997.106
997.113
997.121
997.128
997.134
997.141
997.147
997.153
997.159
997.164
997.169
997.174
997.179
997.183
997.188
997.192
997.196
997.2
997.203
997.207
997.21
997.213
997.216
997.219
997.222
997.225
997.228
997.23
997.233
997.235
997.238
997.24
997.242
997.244
997.246
997.249
997.251
997.252
997.255
997.256
997.002
997.007
997.025
997.039
997.05
997.06
997.07
997.08
997.089
997.097
997.105
997.113
997.12
997.127
997.134
997.14
997.146
997.152
997.158
997.163
997.168
997.173
997.178
997.183
997.187
997.191
997.195
997.199
997.202
997.206
997.209
997.212
997.215
997.218
997.221
997.224
997.226
997.229
997.231
997.234
997.236
997.238
997.24
997.242
997.244
997.246
997.247
997.249
997.25
997.252
997
997.006
997.026
997.04
997.051
997.061
997.071
997.08
997.089
997.097
997.105
997.113
997.12
997.127
997.134
997.14
997.146
997.152
997.157
997.163
997.168
997.173
997.177
997.182
997.186
997.19
997.194
997.198
997.201
997.205
997.208
997.211
997.214
997.217
997.22
997.222
997.225
997.227
997.229
997.232
997.234
997.236
997.238
997.239
997.241
997.242
997.244
997.245
997.246
997.247
997.001
997.013
997.032
997.045
997.056
997.066
997.075
997.084
997.092
997.1
997.107
997.114
997.121
997.128
997.134
997.14
997.146
997.152
997.157
997.162
997.167
997.172
997.177
997.181
997.185
997.189
997.193
997.197
997.2
997.204
997.207
997.21
997.213
997.215
997.218
997.221
997.223
997.225
997.227
997.23
997.231
997.233
997.235
997.236
997.238
997.239
997.24
997.241
997.242
997.242
997.054
997.049
997.049
997.056
997.063
997.072
997.08
997.088
997.095
997.103
997.11
997.117
997.123
997.13
997.136
997.142
997.148
997.153
997.158
997.163
997.168
997.173
997.177
997.181
997.186
997.189
997.193
997.197
997.2
997.203
997.206
997.209
997.212
997.215
997.217
997.22
997.222
997.224
997.226
997.228
997.23
997.231
997.233
997.234
997.235
997.236
997.237
997.237
997.238
997.238
997.068
997.065
997.063
997.067
997.074
997.08
997.087
997.094
997.101
997.108
997.114
997.121
997.127
997.133
997.139
997.144
997.15
997.155
997.16
997.165
997.169
997.174
997.178
997.182
997.186
997.19
997.193
997.197
997.2
997.203
997.206
997.209
997.212
997.214
997.217
997.219
997.221
997.223
997.225
997.227
997.228
997.23
997.231
997.232
997.233
997.234
997.234
997.235
997.235
997.234
997.076
997.076
997.075
997.079
997.084
997.089
997.095
997.101
997.107
997.113
997.119
997.125
997.131
997.136
997.142
997.147
997.152
997.157
997.162
997.166
997.171
997.175
997.179
997.183
997.187
997.19
997.194
997.197
997.2
997.203
997.206
997.209
997.211
997.214
997.216
997.218
997.22
997.222
997.224
997.225
997.227
997.228
997.229
997.23
997.231
997.231
997.232
997.232
997.231
997.231
997.084
997.086
997.086
997.089
997.093
997.098
997.103
997.108
997.113
997.119
997.124
997.13
997.135
997.14
997.145
997.15
997.155
997.159
997.164
997.168
997.172
997.176
997.18
997.184
997.187
997.191
997.194
997.197
997.2
997.203
997.206
997.208
997.211
997.213
997.215
997.217
997.219
997.221
997.222
997.224
997.225
997.226
997.227
997.228
997.228
997.229
997.229
997.229
997.228
997.228
997.094
997.096
997.096
997.099
997.102
997.106
997.11
997.115
997.12
997.125
997.129
997.134
997.139
997.144
997.148
997.153
997.157
997.162
997.166
997.17
997.174
997.177
997.181
997.185
997.188
997.191
997.194
997.197
997.2
997.203
997.205
997.208
997.21
997.212
997.214
997.216
997.218
997.22
997.221
997.222
997.223
997.224
997.225
997.226
997.226
997.226
997.226
997.226
997.225
997.224
997.104
997.105
997.106
997.108
997.111
997.115
997.118
997.122
997.126
997.13
997.135
997.139
997.143
997.148
997.152
997.156
997.16
997.164
997.168
997.172
997.175
997.179
997.182
997.186
997.189
997.192
997.195
997.198
997.2
997.203
997.205
997.207
997.21
997.212
997.214
997.215
997.217
997.218
997.22
997.221
997.222
997.223
997.223
997.224
997.224
997.224
997.224
997.223
997.222
997.221
997.114
997.115
997.116
997.118
997.12
997.123
997.126
997.129
997.133
997.136
997.14
997.144
997.148
997.152
997.156
997.159
997.163
997.167
997.17
997.174
997.177
997.18
997.184
997.187
997.19
997.193
997.195
997.198
997.2
997.203
997.205
997.207
997.209
997.211
997.213
997.214
997.216
997.217
997.218
997.219
997.22
997.221
997.221
997.222
997.222
997.222
997.221
997.221
997.22
997.218
997.124
997.125
997.125
997.127
997.129
997.131
997.133
997.136
997.139
997.142
997.146
997.149
997.153
997.156
997.159
997.163
997.166
997.17
997.173
997.176
997.179
997.182
997.185
997.188
997.191
997.193
997.196
997.198
997.201
997.203
997.205
997.207
997.209
997.211
997.212
997.214
997.215
997.216
997.217
997.218
997.219
997.219
997.22
997.22
997.22
997.219
997.219
997.218
997.217
997.215
997.134
997.134
997.135
997.136
997.137
997.139
997.141
997.143
997.146
997.148
997.151
997.154
997.157
997.16
997.163
997.166
997.169
997.172
997.175
997.178
997.181
997.184
997.187
997.189
997.192
997.194
997.197
997.199
997.201
997.203
997.205
997.207
997.208
997.21
997.212
997.213
997.214
997.215
997.216
997.217
997.217
997.218
997.218
997.218
997.218
997.217
997.217
997.216
997.215
997.213
997.144
997.143
997.144
997.144
997.145
997.147
997.148
997.15
997.152
997.154
997.157
997.159
997.162
997.164
997.167
997.17
997.173
997.175
997.178
997.181
997.183
997.186
997.188
997.191
997.193
997.195
997.197
997.199
997.201
997.203
997.205
997.207
997.208
997.21
997.211
997.212
997.213
997.214
997.215
997.216
997.216
997.216
997.216
997.216
997.216
997.216
997.215
997.214
997.212
997.211
997.153
997.152
997.152
997.153
997.153
997.154
997.155
997.157
997.158
997.16
997.162
997.164
997.166
997.169
997.171
997.173
997.176
997.178
997.181
997.183
997.185
997.188
997.19
997.192
997.194
997.196
997.198
997.2
997.202
997.203
997.205
997.207
997.208
997.209
997.21
997.212
997.212
997.213
997.214
997.214
997.215
997.215
997.215
997.215
997.214
997.214
997.213
997.212
997.21
997.209
997.162
997.161
997.161
997.161
997.161
997.162
997.162
997.163
997.164
997.166
997.167
997.169
997.171
997.173
997.175
997.177
997.179
997.181
997.183
997.185
997.187
997.189
997.191
997.193
997.195
997.197
997.199
997.201
997.202
997.204
997.205
997.207
997.208
997.209
997.21
997.211
997.212
997.213
997.213
997.213
997.214
997.214
997.214
997.213
997.213
997.212
997.211
997.21
997.209
997.207
997.171
997.169
997.169
997.169
997.168
997.169
997.169
997.17
997.17
997.171
997.173
997.174
997.176
997.177
997.179
997.181
997.182
997.184
997.186
997.188
997.19
997.191
997.193
997.195
997.197
997.198
997.2
997.201
997.203
997.204
997.206
997.207
997.208
997.209
997.21
997.211
997.211
997.212
997.212
997.213
997.213
997.213
997.213
997.212
997.212
997.211
997.21
997.209
997.207
997.205
997.18
997.177
997.177
997.176
997.176
997.175
997.175
997.176
997.176
997.177
997.178
997.179
997.18
997.181
997.183
997.184
997.186
997.187
997.189
997.19
997.192
997.193
997.195
997.196
997.198
997.199
997.201
997.202
997.203
997.205
997.206
997.207
997.208
997.209
997.21
997.21
997.211
997.211
997.212
997.212
997.212
997.212
997.212
997.211
997.211
997.21
997.209
997.208
997.206
997.204
997.188
997.185
997.184
997.183
997.182
997.182
997.182
997.181
997.182
997.182
997.183
997.183
997.184
997.185
997.186
997.187
997.189
997.19
997.191
997.193
997.194
997.195
997.197
997.198
997.199
997.201
997.202
997.203
997.204
997.205
997.206
997.207
997.208
997.209
997.209
997.21
997.21
997.211
997.211
997.211
997.211
997.211
997.211
997.21
997.21
997.209
997.208
997.207
997.205
997.203
997.195
997.192
997.191
997.19
997.189
997.188
997.187
997.187
997.187
997.187
997.187
997.188
997.188
997.189
997.19
997.191
997.192
997.193
997.194
997.195
997.196
997.197
997.198
997.2
997.201
997.202
997.203
997.204
997.205
997.206
997.207
997.207
997.208
997.209
997.209
997.21
997.21
997.21
997.211
997.211
997.211
997.21
997.21
997.209
997.209
997.208
997.207
997.206
997.204
997.203
997.202
997.199
997.198
997.196
997.195
997.194
997.193
997.192
997.192
997.192
997.192
997.192
997.192
997.193
997.194
997.194
997.195
997.196
997.197
997.197
997.198
997.199
997.2
997.201
997.202
997.203
997.204
997.205
997.206
997.206
997.207
997.208
997.208
997.209
997.209
997.21
997.21
997.21
997.21
997.21
997.21
997.21
997.209
997.209
997.208
997.207
997.206
997.205
997.204
997.202
997.209
997.206
997.204
997.202
997.201
997.199
997.198
997.198
997.197
997.197
997.196
997.196
997.196
997.197
997.197
997.197
997.198
997.198
997.199
997.2
997.201
997.201
997.202
997.203
997.204
997.204
997.205
997.206
997.206
997.207
997.208
997.208
997.209
997.209
997.209
997.21
997.21
997.21
997.21
997.21
997.21
997.209
997.209
997.208
997.208
997.207
997.206
997.205
997.203
997.202
997.215
997.212
997.21
997.208
997.206
997.205
997.203
997.202
997.202
997.201
997.201
997.2
997.2
997.2
997.2
997.2
997.201
997.201
997.202
997.202
997.203
997.203
997.204
997.204
997.205
997.206
997.206
997.207
997.207
997.208
997.208
997.209
997.209
997.209
997.21
997.21
997.21
997.21
997.21
997.21
997.209
997.209
997.209
997.208
997.207
997.206
997.205
997.204
997.203
997.202
997.221
997.217
997.215
997.213
997.211
997.21
997.208
997.207
997.206
997.205
997.205
997.204
997.204
997.204
997.203
997.203
997.204
997.204
997.204
997.204
997.205
997.205
997.206
997.206
997.206
997.207
997.207
997.208
997.208
997.209
997.209
997.209
997.209
997.21
997.21
997.21
997.21
997.21
997.21
997.21
997.209
997.209
997.208
997.208
997.207
997.206
997.205
997.204
997.203
997.202
997.226
997.223
997.22
997.218
997.216
997.214
997.213
997.211
997.21
997.209
997.208
997.208
997.207
997.207
997.207
997.206
997.206
997.206
997.206
997.207
997.207
997.207
997.207
997.208
997.208
997.208
997.208
997.209
997.209
997.209
997.21
997.21
997.21
997.21
997.21
997.21
997.21
997.21
997.21
997.21
997.209
997.209
997.208
997.208
997.207
997.206
997.205
997.204
997.203
997.202
997.231
997.227
997.225
997.223
997.221
997.219
997.217
997.215
997.214
997.213
997.212
997.211
997.21
997.21
997.209
997.209
997.209
997.209
997.209
997.209
997.209
997.209
997.209
997.209
997.209
997.209
997.21
997.21
997.21
997.21
997.21
997.21
997.21
997.21
997.21
997.21
997.21
997.21
997.21
997.21
997.209
997.209
997.208
997.208
997.207
997.206
997.205
997.204
997.203
997.202
997.236
997.232
997.23
997.227
997.225
997.223
997.221
997.219
997.218
997.217
997.215
997.214
997.214
997.213
997.212
997.212
997.211
997.211
997.211
997.211
997.211
997.211
997.211
997.211
997.211
997.211
997.211
997.211
997.211
997.211
997.211
997.211
997.211
997.211
997.211
997.211
997.211
997.21
997.21
997.21
997.209
997.209
997.208
997.208
997.207
997.206
997.205
997.204
997.203
997.202
997.24
997.236
997.234
997.231
997.229
997.227
997.225
997.223
997.221
997.22
997.219
997.218
997.217
997.216
997.215
997.214
997.214
997.213
997.213
997.213
997.212
997.212
997.212
997.212
997.212
997.212
997.212
997.212
997.212
997.212
997.212
997.212
997.212
997.211
997.211
997.211
997.211
997.211
997.21
997.21
997.209
997.209
997.208
997.208
997.207
997.206
997.206
997.205
997.204
997.203
997.244
997.24
997.238
997.235
997.232
997.23
997.228
997.226
997.225
997.223
997.222
997.22
997.219
997.218
997.218
997.217
997.216
997.216
997.215
997.215
997.214
997.214
997.214
997.213
997.213