/*--------------------------------*- C++ -*----------------------------------*\
  =========                 |
  \\      /  F ield         | OpenFOAM: The Open Source CFD Toolbox
   \\    /   O peration     | Website:  https://openfoam.org
    \\  /    A nd           | Version:  6
     \\/     M anipulation  |
\*---------------------------------------------------------------------------*/
FoamFile
{
    version     2.0;
    format      ascii;
    class       surfaceScalarField;
    location    "1";
    object      phi;
}
// * * * * * * * * * * * * * * * * * * * * * * * * * * * * * * * * * * * * * //

dimensions      [0 3 -1 0 0 0 0];

internalField   nonuniform List<scalar> 
11030
(
0.000118276
3.24469e-07
0.000118373
-9.68351e-08
0.000118237
1.36247e-07
0.000117859
3.78278e-07
0.000117496
3.6255e-07
0.000117151
3.45543e-07
0.000116754
3.96199e-07
0.000116284
4.70558e-07
0.000115734
5.49886e-07
0.000115095
6.38831e-07
0.000114353
7.41875e-07
0.000113493
8.60355e-07
0.000112497
9.95553e-07
0.000111348
1.14956e-06
0.000110023
1.32491e-06
0.000108499
1.52411e-06
0.00010675
1.74897e-06
0.000104751
1.99894e-06
0.000102483
2.26801e-06
2.5351e-06
9.99478e-05
0.000118927
-1.41987e-08
0.00011864
1.90016e-07
0.000118171
6.04972e-07
0.000117784
7.65356e-07
0.000117416
7.31143e-07
0.000117007
7.54299e-07
0.000116542
8.61205e-07
0.000116012
9.99862e-07
0.000115407
1.15523e-06
0.000114712
1.33424e-06
0.000113912
1.54209e-06
0.000112991
1.78101e-06
0.000111933
2.05381e-06
0.000110718
2.36465e-06
0.000109324
2.71838e-06
0.000107728
3.11982e-06
0.000105905
3.5724e-06
0.000103829
4.07486e-06
0.000101482
4.61502e-06
5.15515e-06
9.88619e-05
0.0001186
-7.93932e-08
0.000118471
3.18896e-07
0.000118107
9.68799e-07
0.000117693
1.1802e-06
0.00011728
1.14359e-06
0.000116833
1.20124e-06
0.000116326
1.36833e-06
0.000115749
1.57678e-06
0.000115093
1.81173e-06
0.000114344
2.08336e-06
0.000113487
2.39825e-06
0.000112509
2.7595e-06
0.000111391
3.1714e-06
0.000110116
3.64001e-06
0.000108662
4.1724e-06
0.000107006
4.77559e-06
0.000105124
5.45458e-06
0.000102991
6.20754e-06
0.00010059
7.01669e-06
7.83043e-06
9.79144e-05
0.000118457
-6.27577e-08
0.000118293
4.82862e-07
0.000117943
1.31871e-06
0.000117529
1.59365e-06
0.000117102
1.57119e-06
0.000116631
1.67161e-06
0.000116094
1.90606e-06
0.000115479
2.19123e-06
0.00011478
2.51141e-06
0.000113983
2.87992e-06
0.000113076
3.3048e-06
0.000112046
3.79008e-06
0.000110876
4.34139e-06
0.000109549
4.96661e-06
0.000108047
5.67483e-06
0.000106347
6.4751e-06
0.000104428
7.3739e-06
0.000102267
8.36887e-06
9.98464e-05
9.43705e-06
1.05153e-05
9.71615e-05
0.000118319
2.64573e-08
0.000118103
6.99141e-07
0.000117748
1.67345e-06
0.000117336
2.00534e-06
0.000116901
2.00642e-06
0.000116413
2.15909e-06
0.00011585
2.46919e-06
0.000115203
2.83859e-06
0.000114464
3.25027e-06
0.000113624
3.72023e-06
0.000112671
4.25778e-06
0.000111593
4.86771e-06
0.000110378
5.55687e-06
0.000109009
6.33476e-06
0.000107472
7.21224e-06
0.000105747
8.2001e-06
0.000103815
9.30606e-06
0.000101657
1.05272e-05
9.9258e-05
1.18356e-05
1.31589e-05
9.66144e-05
0.000118163
2.01256e-07
0.000117893
9.69515e-07
0.000117542
2.02467e-06
0.000117139
2.40807e-06
0.0001167
2.44591e-06
0.000116195
2.66319e-06
0.000115606
3.05885e-06
0.000114924
3.52076e-06
0.000114144
4.03027e-06
0.000113258
4.6056e-06
0.000112259
5.25714e-06
0.000111136
5.99034e-06
0.00010988
6.81312e-06
0.000108478
7.73635e-06
0.000106918
8.77236e-06
0.000105185
9.93325e-06
0.000103264
1.12277e-05
0.000101139
1.26521e-05
9.88e-05
1.41742e-05
1.5715e-05
9.6244e-05
0.000117955
5.09493e-07
0.000117638
1.28648e-06
0.000117335
2.32736e-06
0.000116962
2.7816e-06
0.000116517
2.89086e-06
0.000115989
3.19067e-06
0.000115365
3.68322e-06
0.000114639
4.24657e-06
0.00011381
4.8596e-06
0.000112873
5.54247e-06
0.000111823
6.30688e-06
0.000110655
7.15905e-06
0.00010936
8.1079e-06
0.000107931
9.16543e-06
0.000106358
1.0345e-05
0.000104632
1.16595e-05
0.000102741
1.31182e-05
0.000100676
1.47172e-05
9.84295e-05
1.64209e-05
1.81472e-05
9.59972e-05
0.000117597
1.09614e-06
0.000117273
1.61054e-06
0.000117142
2.45858e-06
0.000116829
3.0942e-06
0.000116362
3.35758e-06
0.000115794
3.75933e-06
0.000115119
4.35807e-06
0.000114334
5.03136e-06
0.000113442
5.75152e-06
0.000112444
6.54081e-06
0.000111337
7.41342e-06
0.00011012
8.37675e-06
0.000108787
9.44062e-06
0.000107335
1.06178e-05
0.000105758
1.1922e-05
0.000104051
1.33665e-05
0.000102208
1.49608e-05
0.000100224
1.6701e-05
9.80944e-05
1.85507e-05
2.04331e-05
9.58085e-05
0.000116735
2.46748e-06
0.000116737
1.60915e-06
0.000117052
2.14377e-06
0.000116776
3.36933e-06
0.000116228
3.90642e-06
0.000115587
4.39997e-06
0.000114839
5.10608e-06
0.000113975
5.8955e-06
0.000113004
6.72197e-06
0.000111933
7.61181e-06
0.000110763
8.58414e-06
0.000109492
9.64783e-06
0.000108119
1.08131e-05
0.000106644
1.20928e-05
0.000105066
1.35002e-05
0.000103384
1.5048e-05
0.0001016
1.67451e-05
9.97121e-05
1.8589e-05
9.77184e-05
2.05445e-05
2.25355e-05
9.5616e-05
0.000115193
5.36309e-06
0.000116613
1.89893e-07
0.000117313
1.44356e-06
0.000116808
3.87392e-06
0.000116092
4.62293e-06
0.000115341
5.15085e-06
0.000114488
5.95851e-06
0.000113526
6.85811e-06
0.000112467
7.7807e-06
0.000111319
8.76041e-06
0.000110081
9.82154e-06
0.000108755
1.09737e-05
0.000107342
1.22267e-05
0.000105842
1.35922e-05
0.000104261
1.50819e-05
0.000102603
1.67058e-05
0.000100878
1.84697e-05
9.90956e-05
2.03715e-05
9.72439e-05
2.23962e-05
9.53081e-05
2.44714e-05
8.94419e-05
1.05059e-05
7.87913e-05
1.06506e-05
6.79814e-05
1.08099e-05
5.70067e-05
1.09747e-05
4.58812e-05
1.11255e-05
3.46774e-05
1.12038e-05
2.36097e-05
1.10677e-05
1.31977e-05
1.04119e-05
4.53963e-06
8.65812e-06
4.53963e-06
8.84403e-05
2.09275e-05
7.78688e-05
2.12221e-05
6.71418e-05
2.1537e-05
5.62562e-05
2.18602e-05
4.52299e-05
2.21519e-05
3.41403e-05
2.22933e-05
2.32043e-05
2.20037e-05
1.29389e-05
2.06774e-05
4.47814e-06
1.71189e-05
9.01777e-06
8.75701e-05
3.12718e-05
7.70728e-05
3.17193e-05
6.64226e-05
3.21872e-05
5.56186e-05
3.26643e-05
4.46806e-05
3.30898e-05
3.36895e-05
3.32844e-05
2.28666e-05
3.28267e-05
1.27324e-05
3.08116e-05
4.3946e-06
2.54567e-05
1.34124e-05
8.68749e-05
4.15585e-05
7.64354e-05
4.21588e-05
6.58469e-05
4.27757e-05
5.51089e-05
4.34023e-05
4.42417e-05
4.39571e-05
3.33283e-05
4.41978e-05
2.25934e-05
4.35615e-05
1.25606e-05
4.08444e-05
4.32613e-06
3.36911e-05
1.77385e-05
8.63656e-05
5.18073e-05
7.59641e-05
5.25602e-05
6.54183e-05
5.33215e-05
5.47265e-05
5.40941e-05
4.3908e-05
5.47756e-05
3.30474e-05
5.50584e-05
2.2374e-05
5.42349e-05
1.24163e-05
5.08021e-05
4.266e-06
4.18414e-05
2.20045e-05
8.60161e-05
6.20351e-05
7.56347e-05
6.29417e-05
6.51132e-05
6.3843e-05
5.44469e-05
6.47604e-05
4.36539e-05
6.55686e-05
3.28214e-05
6.58909e-05
2.21849e-05
6.48714e-05
1.2282e-05
6.07049e-05
4.20507e-06
4.99184e-05
2.62096e-05
8.57748e-05
7.22575e-05
7.53973e-05
7.33192e-05
6.48832e-05
7.43571e-05
5.42223e-05
7.54213e-05
4.34324e-05
7.63585e-05
3.26056e-05
7.67177e-05
2.19878e-05
7.54892e-05
1.21299e-05
7.05627e-05
4.12939e-06
5.7919e-05
3.0339e-05
8.55687e-05
8.24973e-05
7.51773e-05
8.37105e-05
6.46542e-05
8.48801e-05
5.39787e-05
8.60969e-05
4.3172e-05
8.71652e-05
3.23351e-05
8.75547e-05
2.17292e-05
8.60951e-05
1.19231e-05
8.03688e-05
4.02076e-06
6.58213e-05
3.43597e-05
8.52869e-05
9.28264e-05
7.4858e-05
9.41393e-05
6.4307e-05
9.54312e-05
5.35998e-05
9.68041e-05
4.27676e-05
9.79973e-05
3.19223e-05
9.84e-05
2.13425e-05
9.66749e-05
1.16152e-05
9.00962e-05
3.85362e-06
7.35828e-05
3.82133e-05
8.4677e-05
0.000103457
7.42224e-05
0.000104594
6.36281e-05
0.000106026
5.28963e-05
0.000107536
4.20653e-05
0.000108828
3.12509e-05
0.000109214
2.07438e-05
0.000107182
1.11411e-05
9.96989e-05
3.57618e-06
8.11478e-05
4.17895e-05
3.24111e-05
0.000109032
-3.79858e-05
2.68677e-05
0.000110137
2.1413e-05
0.00011148
1.60962e-05
0.000112853
1.10678e-05
0.000113857
6.59066e-06
0.000113692
3.02916e-06
0.000110743
7.55337e-07
0.000101973
-8.99284e-08
8.1993e-05
4.16996e-05
2.62698e-05
0.000114039
-3.12766e-05
2.12525e-05
0.000115155
1.63331e-05
0.0001164
1.16236e-05
0.000117562
7.29269e-06
0.000118188
3.60251e-06
0.000117382
8.8812e-07
0.000113458
-5.39739e-07
0.000103401
-6.29984e-07
8.20833e-05
4.10696e-05
2.01498e-05
0.000118509
-2.46202e-05
1.56783e-05
0.000119626
1.13348e-05
0.000120743
7.26028e-06
0.000121637
3.64684e-06
0.000121801
7.57926e-07
0.000120271
-1.10026e-06
0.000115316
-1.68389e-06
0.000103984
-1.05101e-06
8.14504e-05
4.00186e-05
1.41116e-05
0.00012245
-1.80526e-05
1.02052e-05
0.000123533
6.46401e-06
0.000124484
3.04965e-06
0.000125051
1.71774e-07
0.000124679
-1.90792e-06
0.00012235
-2.91533e-06
0.000116323
-2.68073e-06
0.00010375
-1.38622e-06
8.01559e-05
3.86324e-05
8.20046e-06
0.000125861
-1.16106e-05
4.86931e-06
0.000126864
1.7506e-06
0.000127603
-9.81211e-07
0.000127783
-3.10722e-06
0.000126805
-4.37446e-06
0.000123618
-4.54783e-06
0.000116497
-3.53801e-06
0.00010274
-1.65128e-06
7.82692e-05
3.69811e-05
2.44647e-06
0.000128737
-5.32277e-06
-3.01136e-07
0.000129611
-2.78163e-06
0.000130083
-4.81301e-06
0.000129814
-6.17519e-06
0.000128167
-6.63227e-06
0.000124075
-5.99611e-06
0.000115861
-4.26244e-06
0.000101006
-1.85487e-06
7.58616e-05
3.51262e-05
-3.13001e-06
0.000131074
7.92473e-07
-5.28559e-06
0.000131767
-7.11429e-06
0.000131912
-8.43107e-06
0.000131131
-9.02211e-06
0.000128758
-8.67714e-06
0.00012373
-7.26262e-06
0.000114446
-4.86187e-06
9.86053e-05
-2.00517e-06
7.30049e-05
3.31211e-05
-8.51745e-06
0.000132866
6.72555e-06
-1.00707e-05
0.00013332
-1.12342e-05
0.000133076
-1.18241e-05
0.000131721
-1.16403e-05
0.000128574
-1.05064e-05
0.000122596
-8.35064e-06
0.00011229
-5.34421e-06
9.55989e-05
-2.10954e-06
6.97702e-05
3.10115e-05
-1.37097e-05
0.000134103
1.24725e-05
-1.46466e-05
0.000134257
-1.51282e-05
0.000133557
-1.49776e-05
0.00013157
-1.40161e-05
0.000127613
-1.21112e-05
0.000120691
-9.25939e-06
0.000109439
-5.71644e-06
9.2056e-05
-2.17572e-06
6.62295e-05
2.88358e-05
-1.86963e-05
1.80373e-05
0.000134762
-1.89864e-05
0.000134547
-1.87562e-05
0.000133327
-1.78445e-05
0.000130659
-1.61057e-05
0.000125874
-1.34614e-05
0.000118047
-9.97997e-06
0.000105957
-5.98909e-06
8.80651e-05
-2.22089e-06
6.24613e-05
2.66149e-05
8.37293e-05
-3.85897e-05
-8.31254e-05
8.45562e-05
-3.21035e-05
8.55793e-05
-2.56433e-05
8.67419e-05
-1.92152e-05
8.80025e-05
-1.28711e-05
8.9313e-05
-6.63336e-06
9.06227e-05
-5.17223e-07
9.1881e-05
5.46731e-06
9.30402e-05
1.13132e-05
1.70323e-05
9.40452e-05
8.44951e-05
-3.9016e-05
-8.40688e-05
8.51137e-05
-3.27221e-05
8.59286e-05
-2.64582e-05
8.68967e-05
-2.01833e-05
8.79801e-05
-1.39545e-05
8.9138e-05
-7.79126e-06
9.03269e-05
-1.70614e-06
9.15036e-05
4.29067e-06
9.26263e-05
1.01905e-05
1.60091e-05
9.36495e-05
8.51434e-05
-3.92376e-05
-8.49218e-05
8.5575e-05
-3.31537e-05
8.61985e-05
-2.70817e-05
8.69831e-05
-2.09679e-05
8.7896e-05
-1.48674e-05
8.89029e-05
-8.79816e-06
8.99677e-05
-2.771e-06
9.10545e-05
3.20392e-06
9.21279e-05
9.11712e-06
1.49855e-05
9.31515e-05
8.5702e-05
-3.93087e-05
-8.5631e-05
8.59716e-05
-3.34233e-05
8.64237e-05
-2.75337e-05
8.70375e-05
-2.15817e-05
8.77874e-05
-1.56173e-05
8.86462e-05
-9.65694e-06
8.95851e-05
-3.70991e-06
9.0575e-05
2.21399e-06
9.1587e-05
8.10521e-06
1.39803e-05
9.25922e-05
8.61642e-05
-3.92599e-05
-8.62129e-05
8.62978e-05
-3.35569e-05
8.6601e-05
-2.7837e-05
8.70621e-05
-2.20427e-05
8.76624e-05
-1.62176e-05
8.83815e-05
-1.03761e-05
8.91978e-05
-4.52612e-06
9.00884e-05
1.32333e-06
9.10304e-05
7.16322e-06
1.30094e-05
9.20014e-05
8.65305e-05
-3.91064e-05
-8.6684e-05
8.6547e-05
-3.35734e-05
8.67223e-05
-2.80123e-05
8.70502e-05
-2.23706e-05
8.75178e-05
-1.66852e-05
8.81104e-05
-1.09687e-05
8.88121e-05
-5.22778e-06
8.96059e-05
5.29462e-07
9.04743e-05
6.29488e-06
1.20836e-05
9.14001e-05
8.68092e-05
-3.88592e-05
-8.70564e-05
8.67231e-05
-3.34874e-05
8.6788e-05
-2.80772e-05
8.70007e-05
-2.25833e-05
8.73523e-05
-1.70369e-05
8.78326e-05
-1.1449e-05
8.84302e-05
-5.82533e-06
8.91329e-05
-1.73255e-07
8.99276e-05
5.50011e-06
1.12093e-05
9.08019e-05
8.70104e-05
-3.8528e-05
-8.73417e-05
8.68339e-05
-3.33108e-05
8.68028e-05
-2.80461e-05
8.69157e-05
-2.26962e-05
8.71666e-05
-1.72878e-05
8.75481e-05
-1.18305e-05
8.80525e-05
-6.32971e-06
8.86713e-05
-7.92047e-07
8.93952e-05
4.77626e-06
1.03891e-05
9.02153e-05
8.71446e-05
-3.81214e-05
-8.75512e-05
8.68879e-05
-3.30541e-05
8.67728e-05
-2.79311e-05
8.6799e-05
-2.27224e-05
8.69622e-05
-1.7451e-05
8.72573e-05
-1.21256e-05
8.7679e-05
-6.75142e-06
8.82216e-05
-1.33467e-06
8.88788e-05
4.11913e-06
9.62333e-06
8.96446e-05
8.72215e-05
-3.76473e-05
-8.76956e-05
8.68935e-05
-3.27261e-05
8.67046e-05
-2.77422e-05
8.6655e-05
-2.26727e-05
8.67416e-05
-1.75376e-05
8.69609e-05
-1.23449e-05
8.73095e-05
-7.09998e-06
8.77835e-05
-1.80876e-06
8.83789e-05
3.52376e-06
8.91022e-06
8.9092e-05
8.725e-05
-3.71127e-05
-8.77846e-05
8.68586e-05
-3.23346e-05
8.66044e-05
-2.7488e-05
8.6488e-05
-2.25564e-05
8.65074e-05
-1.75569e-05
8.66602e-05
-1.24977e-05
8.6944e-05
-7.38381e-06
8.73566e-05
-2.22136e-06
8.78953e-05
2.985e-06
8.24718e-06
8.85584e-05
8.72383e-05
-3.65241e-05
-8.78269e-05
8.67902e-05
-3.18866e-05
8.64781e-05
-2.7176e-05
8.63028e-05
-2.2381e-05
8.62628e-05
-1.7517e-05
8.63567e-05
-1.25915e-05
8.65831e-05
-7.61016e-06
8.69405e-05
-2.57883e-06
8.74276e-05
2.4979e-06
7.63109e-06
8.80437e-05
8.71933e-05
-3.58871e-05
-8.78303e-05
8.66947e-05
-3.1388e-05
8.6331e-05
-2.68123e-05
8.61033e-05
-2.21532e-05
8.60107e-05
-1.74244e-05
8.60523e-05
-1.26331e-05
8.62274e-05
-7.78525e-06
8.65353e-05
-2.88677e-06
8.69754e-05
2.05783e-06
7.05868e-06
8.75478e-05
8.71213e-05
-3.52068e-05
-8.78016e-05
8.65775e-05
-3.08442e-05
8.61677e-05
-2.64026e-05
8.58932e-05
-2.18787e-05
8.57536e-05
-1.72848e-05
8.57485e-05
-1.26281e-05
8.58777e-05
-7.91443e-06
8.6141e-05
-3.15004e-06
8.65382e-05
1.66063e-06
6.52676e-06
8.70701e-05
8.70276e-05
-3.44876e-05
-8.77468e-05
8.64433e-05
-3.02598e-05
8.59923e-05
-2.59516e-05
8.56759e-05
-2.15623e-05
8.54942e-05
-1.71031e-05
8.54472e-05
-1.25811e-05
8.5535e-05
-8.00226e-06
8.57578e-05
-3.37287e-06
8.61159e-05
1.30257e-06
6.0323e-06
8.66104e-05
8.69168e-05
-3.37335e-05
-8.76709e-05
8.62962e-05
-2.96391e-05
8.58081e-05
-2.54635e-05
8.5454e-05
-2.12082e-05
8.52344e-05
-1.68835e-05
8.51497e-05
-1.24963e-05
8.52001e-05
-8.05269e-06
8.53862e-05
-3.55895e-06
8.57084e-05
9.80344e-07
5.57251e-06
8.61682e-05
8.67928e-05
-3.29481e-05
-8.75783e-05
8.61395e-05
-2.89858e-05
8.5618e-05
-2.4942e-05
8.523e-05
-2.08202e-05
8.49762e-05
-1.66298e-05
8.48572e-05
-1.23773e-05
8.48737e-05
-8.06915e-06
8.50262e-05
-3.7115e-06
8.53156e-05
6.91016e-07
5.14484e-06
8.57432e-05
8.66589e-05
-3.21345e-05
-8.74725e-05
8.59761e-05
-2.83029e-05
8.54245e-05
-2.43905e-05
8.50058e-05
-2.04016e-05
8.4721e-05
-1.6345e-05
8.4571e-05
-1.22273e-05
8.45565e-05
-8.05465e-06
8.46783e-05
-3.83335e-06
8.49374e-05
4.31977e-07
4.74697e-06
8.53353e-05
8.65178e-05
-3.12954e-05
-8.73568e-05
8.58084e-05
-2.75935e-05
8.52296e-05
-2.38117e-05
8.47831e-05
-1.99551e-05
8.44702e-05
-1.60321e-05
8.42919e-05
-1.20489e-05
8.42491e-05
-8.01184e-06
8.43427e-05
-3.92701e-06
8.45738e-05
2.00896e-07
4.37677e-06
8.4944e-05
8.63718e-05
-3.04334e-05
-8.72338e-05
8.56384e-05
-2.68602e-05
8.5035e-05
-2.32082e-05
8.45633e-05
-1.94835e-05
8.42248e-05
-1.56936e-05
8.40206e-05
-1.18447e-05
8.39519e-05
-7.94309e-06
8.40196e-05
-3.99473e-06
8.42248e-05
-4.32695e-09
4.03233e-06
8.45693e-05
8.6223e-05
-2.95506e-05
-8.71057e-05
8.54679e-05
-2.61051e-05
8.48421e-05
-2.25824e-05
8.43475e-05
-1.89889e-05
8.39857e-05
-1.53317e-05
8.37578e-05
-1.16169e-05
8.36652e-05
-7.8505e-06
8.3709e-05
-4.03852e-06
8.38903e-05
-1.8559e-07
3.71188e-06
8.42107e-05
8.60729e-05
-2.86491e-05
-8.69744e-05
8.52982e-05
-2.53304e-05
8.46521e-05
-2.19363e-05
8.41366e-05
-1.84734e-05
8.37534e-05
-1.49485e-05
8.35039e-05
-1.13674e-05
8.33894e-05
-7.73599e-06
8.34111e-05
-4.06021e-06
8.35701e-05
-3.4462e-07
3.41379e-06
8.38682e-05
8.5923e-05
-2.77307e-05
-8.68415e-05
8.51305e-05
-2.45379e-05
8.44659e-05
-2.12717e-05
8.39314e-05
-1.79389e-05
8.35287e-05
-1.45458e-05
8.32593e-05
-1.1098e-05
8.31246e-05
-7.60127e-06
8.31258e-05
-4.06145e-06
8.32642e-05
-4.82998e-07
3.13657e-06
8.35414e-05
8.57745e-05
-2.67968e-05
-8.67083e-05
8.49658e-05
-2.37292e-05
8.42844e-05
-2.05904e-05
8.37325e-05
-1.7387e-05
8.33119e-05
-1.41252e-05
8.30242e-05
-1.08102e-05
8.28708e-05
-7.44791e-06
8.28531e-05
-4.04375e-06
8.29723e-05
-6.02179e-07
2.87883e-06
8.323e-05
8.56282e-05
-2.58491e-05
-8.6576e-05
8.48048e-05
-2.29057e-05
8.41081e-05
-1.98936e-05
8.35403e-05
-1.68192e-05
8.31033e-05
-1.36881e-05
8.27987e-05
-1.05057e-05
8.26282e-05
-7.27733e-06
8.25929e-05
-4.00849e-06
8.26942e-05
-7.03501e-07
2.63927e-06
8.29338e-05
8.54851e-05
-2.48886e-05
-8.64455e-05
8.46483e-05
-2.2069e-05
8.39376e-05
-1.9183e-05
8.33553e-05
-1.62368e-05
8.29032e-05
-1.3236e-05
8.25831e-05
-1.01856e-05
8.23966e-05
-7.09084e-06
8.23451e-05
-3.95696e-06
8.24298e-05
-7.88206e-07
2.4167e-06
8.26524e-05
8.53458e-05
-2.39167e-05
-8.63177e-05
8.44968e-05
-2.122e-05
8.37733e-05
-1.84595e-05
8.31776e-05
-1.56411e-05
8.27117e-05
-1.27701e-05
8.23773e-05
-9.85125e-06
8.21761e-05
-6.88963e-06
8.21095e-05
-3.89033e-06
8.21787e-05
-8.57443e-07
2.20998e-06
8.23854e-05
8.52107e-05
-2.29344e-05
-8.61931e-05
8.43507e-05
-2.03599e-05
8.36155e-05
-1.77243e-05
8.30076e-05
-1.50332e-05
8.2529e-05
-1.22914e-05
8.21814e-05
-9.50369e-06
8.19666e-05
-6.67481e-06
8.18859e-05
-3.80968e-06
8.19408e-05
-9.12287e-07
2.01806e-06
8.21327e-05
8.50805e-05
-2.19425e-05
-8.60724e-05
8.42104e-05
-1.94898e-05
8.34645e-05
-1.69785e-05
8.28454e-05
-1.44141e-05
8.2355e-05
-1.18011e-05
8.19953e-05
-9.14397e-06
8.17679e-05
-6.4474e-06
8.16743e-05
-3.71604e-06
8.17157e-05
-9.53735e-07
1.83996e-06
8.18938e-05
8.49555e-05
-2.09421e-05
-8.59559e-05
8.40761e-05
-1.86104e-05
8.33205e-05
-1.62229e-05
8.26911e-05
-1.37847e-05
8.219e-05
-1.13e-05
8.1819e-05
-8.77302e-06
8.15799e-05
-6.20833e-06
8.14742e-05
-3.61033e-06
8.15032e-05
-9.82722e-07
1.67473e-06
8.16684e-05
8.48359e-05
-1.99338e-05
-8.58442e-05
8.39481e-05
-1.77226e-05
8.31836e-05
-1.54584e-05
8.25447e-05
-1.31458e-05
8.20337e-05
-1.07889e-05
8.16524e-05
-8.39172e-06
8.14026e-05
-5.95848e-06
8.12857e-05
-3.49343e-06
8.13031e-05
-1.00012e-06
1.52151e-06
8.14563e-05
8.4722e-05
-1.89183e-05
-8.57375e-05
8.38266e-05
-1.68272e-05
8.30539e-05
-1.46857e-05
8.24064e-05
-1.24983e-05
8.18863e-05
-1.02688e-05
8.14954e-05
-8.00086e-06
8.12356e-05
-5.69865e-06
8.11083e-05
-3.36615e-06
8.11149e-05
-1.00675e-06
1.37947e-06
8.1257e-05
8.46141e-05
-1.78964e-05
-8.56359e-05
8.37117e-05
-1.59248e-05
8.29315e-05
-1.39056e-05
8.22761e-05
-1.18429e-05
8.17476e-05
-9.74022e-06
8.13479e-05
-7.6012e-06
8.10789e-05
-5.42961e-06
8.0942e-05
-3.22926e-06
8.09386e-05
-1.00338e-06
1.24782e-06
8.10702e-05
8.45121e-05
-1.68687e-05
-8.55399e-05
8.36034e-05
-1.50161e-05
8.28165e-05
-1.31187e-05
8.21538e-05
-1.11802e-05
8.16175e-05
-9.20398e-06
8.12098e-05
-7.19342e-06
8.09322e-05
-5.15205e-06
8.07864e-05
-3.08347e-06
8.07738e-05
-9.9074e-07
1.12584e-06
8.08958e-05
8.44164e-05
-1.58357e-05
-8.54494e-05
8.35019e-05
-1.41016e-05
8.27088e-05
-1.23255e-05
8.20394e-05
-1.05108e-05
8.14961e-05
-8.66068e-06
8.10809e-05
-6.77817e-06
8.07955e-05
-4.86664e-06
8.06414e-05
-2.92946e-06
8.06202e-05
-9.6951e-07
1.01283e-06
8.07332e-05
8.43269e-05
-1.47979e-05
-8.53646e-05
8.34072e-05
-1.31819e-05
8.26084e-05
-1.15267e-05
8.1933e-05
-9.83543e-06
8.13832e-05
-8.11091e-06
8.09611e-05
-6.35606e-06
8.06684e-05
-4.57399e-06
8.05068e-05
-2.76785e-06
8.04777e-05
-9.40336e-07
9.08109e-07
8.05824e-05
8.42436e-05
-1.37558e-05
-8.52857e-05
8.33192e-05
-1.22575e-05
8.25153e-05
-1.07228e-05
8.18344e-05
-9.1545e-06
8.12787e-05
-7.55521e-06
8.08503e-05
-5.92766e-06
8.0551e-05
-4.27469e-06
8.03824e-05
-2.59925e-06
8.03459e-05
-9.03834e-07
8.11062e-07
8.04429e-05
8.41667e-05
-1.27099e-05
-8.52126e-05
8.32381e-05
-1.13289e-05
8.24295e-05
-9.91426e-06
8.17436e-05
-8.46853e-06
8.11825e-05
-6.99412e-06
8.07483e-05
-5.4935e-06
8.04429e-05
-3.96929e-06
8.02679e-05
-2.42421e-06
8.02246e-05
-8.60585e-07
7.21084e-07
8.03146e-05
8.40961e-05
-1.16606e-05
-8.51454e-05
8.31637e-05
-1.03965e-05
8.23509e-05
-9.10154e-06
8.16604e-05
-7.77802e-06
8.10944e-05
-6.42812e-06
8.0655e-05
-5.05408e-06
8.0344e-05
-3.65831e-06
8.01631e-05
-2.24328e-06
8.01137e-05
-8.11144e-07
6.37598e-07
8.01971e-05
8.40318e-05
-1.06083e-05
-8.50841e-05
8.3096e-05
-9.46066e-06
8.22795e-05
-8.28507e-06
8.15849e-05
-7.08341e-06
8.10145e-05
-5.85768e-06
8.05703e-05
-4.60989e-06
8.02542e-05
-3.34225e-06
8.00679e-05
-2.05698e-06
8.00128e-05
-7.56041e-07
5.60052e-07
8.00903e-05
8.39737e-05
-9.55329e-06
-8.50287e-05
8.3035e-05
-8.52189e-06
8.22152e-05
-7.46527e-06
8.15169e-05
-6.38513e-06
8.09424e-05
-5.28324e-06
8.04939e-05
-4.1614e-06
8.01733e-05
-3.02158e-06
7.99821e-05
-1.86578e-06
7.99218e-05
-6.95789e-07
4.87916e-07
7.9994e-05
8.39219e-05
-8.49607e-06
-8.49791e-05
8.29805e-05
-7.58052e-06
8.21578e-05
-6.64254e-06
8.14563e-05
-5.6836e-06
8.08782e-05
-4.70522e-06
8.04259e-05
-3.70903e-06
8.01011e-05
-2.69675e-06
7.99054e-05
-1.67018e-06
7.98405e-05
-6.30879e-07
4.20675e-07
7.99078e-05
8.38762e-05
-7.43695e-06
-8.49353e-05
8.29326e-05
-6.63694e-06
8.21073e-05
-5.81728e-06
8.14029e-05
-4.9792e-06
8.08218e-05
-4.12405e-06
8.0366e-05
-3.25322e-06
8.00374e-05
-2.36822e-06
7.98379e-05
-1.47061e-06
7.97688e-05
-5.61788e-07
3.57828e-07
7.98316e-05
8.38365e-05
-6.37629e-06
-8.48972e-05
8.28911e-05
-5.69151e-06
8.20637e-05
-4.98985e-06
8.13568e-05
-4.27234e-06
8.07729e-05
-3.54012e-06
8.0314e-05
-2.79438e-06
7.99822e-05
-2.0364e-06
7.97792e-05
-1.26754e-06
7.97063e-05
-4.88981e-07
2.98885e-07
7.97653e-05
8.38029e-05
-5.31446e-06
-8.48647e-05
8.2856e-05
-4.7446e-06
8.20267e-05
-4.16063e-06
8.13178e-05
-3.56339e-06
8.07315e-05
-2.95382e-06
8.027e-05
-2.33291e-06
7.99353e-05
-1.70172e-06
7.97292e-05
-1.06139e-06
7.96531e-05
-4.1292e-07
2.43363e-07
7.97087e-05
8.37751e-05
-4.25181e-06
-8.48378e-05
8.28271e-05
-3.79656e-06
8.19964e-05
-3.32998e-06
8.12858e-05
-2.85272e-06
8.06975e-05
-2.36553e-06
8.02338e-05
-1.8692e-06
7.98966e-05
-1.36459e-06
7.96879e-05
-8.5261e-07
7.9609e-05
-3.34059e-07
1.90781e-07
7.96616e-05
8.37532e-05
-3.1887e-06
-8.48163e-05
8.28044e-05
-2.84776e-06
8.19727e-05
-2.49826e-06
8.12606e-05
-2.14069e-06
8.06707e-05
-1.77562e-06
8.02052e-05
-1.40364e-06
7.9866e-05
-1.02542e-06
7.9655e-05
-6.41624e-07
7.95738e-05
-2.52859e-07
1.40655e-07
7.96239e-05
8.3737e-05
-2.12549e-06
-8.48002e-05
8.27878e-05
-1.89852e-06
8.19553e-05
-1.6658e-06
8.12423e-05
-1.42765e-06
8.06511e-05
-1.18446e-06
8.01841e-05
-9.36649e-07
7.98433e-05
-6.84635e-07
7.96306e-05
-4.2888e-07
7.95475e-05
-1.69786e-07
9.24895e-08
7.95957e-05
8.37265e-05
-1.06249e-06
-8.47895e-05
8.27772e-05
-9.49173e-07
8.19443e-05
-8.32934e-07
8.12306e-05
-7.13961e-07
8.06386e-05
-5.92455e-07
8.01706e-05
-4.68618e-07
7.98286e-05
-3.42671e-07
7.96146e-05
-2.1484e-07
7.95301e-05
-8.53279e-08
4.57803e-08
7.95768e-05
8.37216e-05
-8.47841e-05
8.27724e-05
8.19395e-05
8.12255e-05
8.0633e-05
8.01644e-05
7.98218e-05
7.96069e-05
7.95216e-05
7.95674e-05
8.33439e-05
3.48946e-06
8.23078e-05
1.22602e-06
8.18064e-05
1.94501e-06
8.19745e-05
3.70575e-06
8.20156e-05
4.58183e-06
8.19172e-05
5.2493e-06
8.18048e-05
6.07085e-06
8.16958e-05
6.96718e-06
8.15804e-05
7.89607e-06
8.14621e-05
8.87875e-06
8.13498e-05
9.93377e-06
8.1253e-05
1.10706e-05
8.11817e-05
1.22979e-05
8.11486e-05
1.36253e-05
8.11689e-05
1.50617e-05
8.12611e-05
1.66136e-05
8.14482e-05
1.82826e-05
8.17623e-05
2.00574e-05
8.22696e-05
2.18888e-05
2.36156e-05
8.30118e-05
2.03154e-06
8.24468e-05
1.79096e-06
8.20264e-05
2.36546e-06
8.20881e-05
3.64401e-06
8.21145e-05
4.55542e-06
8.20498e-05
5.31405e-06
8.1974e-05
6.14661e-06
8.19035e-05
7.03767e-06
8.18335e-05
7.96606e-06
8.17676e-05
8.94464e-06
8.17142e-05
9.98724e-06
8.16823e-05
1.11024e-05
8.16826e-05
1.22976e-05
8.17276e-05
1.35803e-05
8.18327e-05
1.49565e-05
8.20167e-05
1.64296e-05
8.23027e-05
1.79966e-05
8.27199e-05
1.96402e-05
8.33039e-05
2.13048e-05
2.28507e-05
8.22742e-05
1.34792e-06
8.22141e-05
1.85099e-06
8.20396e-05
2.54002e-06
8.20788e-05
3.60482e-06
8.21209e-05
4.51332e-06
8.21083e-05
5.32659e-06
8.20815e-05
6.17341e-06
8.20567e-05
7.06244e-06
8.20355e-05
7.98732e-06
8.20226e-05
8.95749e-06
8.20263e-05
9.98356e-06
8.20557e-05
1.1073e-05
8.21213e-05
1.2232e-05
8.22356e-05
1.34661e-05
8.24132e-05
1.4779e-05
8.26715e-05
1.61712e-05
8.30308e-05
1.76373e-05
8.3513e-05
1.9158e-05
8.41384e-05
2.06794e-05
2.20673e-05
8.19459e-05
1.01475e-06
8.19866e-05
1.81029e-06
8.19517e-05
2.57494e-06
8.20158e-05
3.54067e-06
8.20842e-05
4.44493e-06
8.21193e-05
5.29148e-06
8.21417e-05
6.15108e-06
8.21644e-05
7.03976e-06
8.21921e-05
7.9596e-06
8.22309e-05
8.91867e-06
8.22889e-05
9.92553e-06
8.23753e-05
1.09866e-05
8.25002e-05
1.21071e-05
8.26755e-05
1.32907e-05
8.29149e-05
1.45396e-05
8.32339e-05
1.58523e-05
8.36495e-05
1.72217e-05
8.41792e-05
1.86283e-05
8.48374e-05
2.00212e-05
2.12737e-05
8.1784e-05
8.60678e-07
8.18422e-05
1.75208e-06
8.18712e-05
2.54591e-06
8.19507e-05
3.46114e-06
8.20379e-05
4.35772e-06
8.21094e-05
5.22005e-06
8.21735e-05
6.08692e-06
8.22394e-05
6.97394e-06
8.23123e-05
7.88662e-06
8.23988e-05
8.83218e-06
8.25066e-05
9.81775e-06
8.26444e-05
1.08488e-05
8.2822e-05
1.19295e-05
8.30505e-05
1.30623e-05
8.33421e-05
1.42479e-05
8.37105e-05
1.54839e-05
8.41701e-05
1.67621e-05
8.47349e-05
1.80635e-05
8.54152e-05
1.93409e-05
2.0476e-05
8.17141e-05
7.91267e-07
8.17666e-05
1.69959e-06
8.18185e-05
2.49399e-06
8.19033e-05
3.37631e-06
8.20011e-05
4.25999e-06
8.20968e-05
5.12434e-06
8.21927e-05
5.99099e-06
8.22942e-05
6.87248e-06
8.2406e-05
7.77478e-06
8.25341e-05
8.70411e-06
8.26855e-05
9.66636e-06
8.28682e-05
1.0666e-05
8.30914e-05
1.17063e-05
8.3365e-05
1.27887e-05
8.37e-05
1.3913e-05
8.41081e-05
1.50757e-05
8.46016e-05
1.62686e-05
8.51915e-05
1.74735e-05
8.58857e-05
1.86468e-05
1.96777e-05
8.16919e-05
7.57904e-07
8.17354e-05
1.65604e-06
8.17928e-05
2.43658e-06
8.18778e-05
3.29134e-06
8.19803e-05
4.15744e-06
8.2091e-05
5.01365e-06
8.22094e-05
5.8726e-06
8.23384e-05
6.74352e-06
8.24816e-05
7.6315e-06
8.26442e-05
8.54155e-06
8.28322e-05
9.47833e-06
8.30529e-05
1.04454e-05
8.33142e-05
1.1445e-05
8.36251e-05
1.24778e-05
8.39952e-05
1.35429e-05
8.44345e-05
1.46364e-05
8.49532e-05
1.57499e-05
8.55604e-05
1.68664e-05
8.62619e-05
1.79453e-05
1.88832e-05
8.16916e-05
7.38223e-07
8.17296e-05
1.61802e-06
8.17873e-05
2.37887e-06
8.18709e-05
3.20776e-06
8.19754e-05
4.05298e-06
8.2095e-05
4.89401e-06
8.22287e-05
5.7389e-06
8.2378e-05
6.59426e-06
8.25456e-05
7.46389e-06
8.27356e-05
8.35155e-06
8.29532e-05
9.26071e-06
8.32046e-05
1.0194e-05
8.34968e-05
1.11528e-05
8.38375e-05
1.21371e-05
8.4235e-05
1.31454e-05
8.46979e-05
1.41735e-05
8.52345e-05
1.52133e-05
8.58522e-05
1.62487e-05
8.65554e-05
1.72421e-05
1.80969e-05
8.17007e-05
7.22594e-07
8.17369e-05
1.58178e-06
8.17945e-05
2.32128e-06
8.18771e-05
3.12516e-06
8.19826e-05
3.94749e-06
8.21078e-05
4.76877e-06
8.22519e-05
5.59479e-06
8.24158e-05
6.43035e-06
8.26017e-05
7.27805e-06
8.28128e-05
8.14048e-06
8.30534e-05
9.02007e-06
8.33289e-05
9.91852e-06
8.36451e-05
1.08365e-05
8.40087e-05
1.17735e-05
8.44268e-05
1.27274e-05
8.49064e-05
1.36939e-05
8.54544e-05
1.46653e-05
8.60769e-05
1.56262e-05
8.67769e-05
1.65421e-05
1.73225e-05
8.17134e-05
7.07163e-07
8.17502e-05
1.54496e-06
8.18085e-05
2.26302e-06
8.18912e-05
3.0425e-06
8.19978e-05
3.84085e-06
8.2127e-05
4.63957e-06
8.22784e-05
5.44339e-06
8.24528e-05
6.25593e-06
8.2652e-05
7.07883e-06
8.28788e-05
7.91372e-06
8.31367e-05
8.76215e-06
8.34302e-05
9.62501e-06
8.37644e-05
1.05024e-05
8.41447e-05
1.13932e-05
8.45771e-05
1.2295e-05
8.50674e-05
1.32035e-05
8.56214e-05
1.41112e-05
8.62437e-05
1.50039e-05
8.69364e-05
1.58495e-05
1.65633e-05
8.17272e-05
6.90624e-07
8.17657e-05
1.50644e-06
8.18255e-05
2.2033e-06
8.19092e-05
2.9588e-06
8.20174e-05
3.73262e-06
8.21498e-05
4.50717e-06
8.23065e-05
5.28665e-06
8.24885e-05
6.07394e-06
8.26974e-05
6.86996e-06
8.29355e-05
7.67562e-06
8.32059e-05
8.49174e-06
8.35123e-05
9.31858e-06
8.3859e-05
1.01557e-05
8.42506e-05
1.10016e-05
8.4692e-05
1.18536e-05
8.5188e-05
1.27075e-05
8.57432e-05
1.35561e-05
8.63611e-05
1.4386e-05
8.70431e-05
1.51675e-05
1.58218e-05
8.1741e-05
6.7273e-07
8.17815e-05
1.46589e-06
8.18431e-05
2.1417e-06
8.19285e-05
2.87344e-06
8.20386e-05
3.62249e-06
8.21738e-05
4.37198e-06
8.23346e-05
5.12583e-06
8.25221e-05
5.88646e-06
8.27378e-05
6.65426e-06
8.29838e-05
7.4296e-06
8.32628e-05
8.21275e-06
8.35779e-05
9.00348e-06
8.39327e-05
9.8009e-06
8.4331e-05
1.06033e-05
8.47768e-05
1.14078e-05
8.52741e-05
1.22102e-05
8.58265e-05
1.30037e-05
8.64366e-05
1.37759e-05
8.7105e-05
1.44991e-05
1.51e-05
8.17543e-05
6.53624e-07
8.17968e-05
1.42341e-06
8.18603e-05
2.07814e-06
8.19476e-05
2.7862e-06
8.20597e-05
3.51034e-06
8.21974e-05
4.23434e-06
8.23613e-05
4.96187e-06
8.25527e-05
5.69504e-06
8.27731e-05
6.43387e-06
8.30244e-05
7.17834e-06
8.33089e-05
7.92831e-06
8.36292e-05
8.68317e-06
8.39883e-05
9.44173e-06
8.43895e-05
1.02021e-05
8.48361e-05
1.09613e-05
8.53311e-05
1.17152e-05
8.58774e-05
1.24574e-05
8.64769e-05
1.31763e-05
8.71296e-05
1.38464e-05
1.43993e-05
8.1767e-05
6.33558e-07
8.18111e-05
1.37929e-06
8.18765e-05
2.0128e-06
8.19655e-05
2.69716e-06
8.20795e-05
3.39632e-06
8.22192e-05
4.09462e-06
8.23856e-05
4.79553e-06
8.25797e-05
5.50088e-06
8.28032e-05
6.21045e-06
8.30576e-05
6.92393e-06
8.3345e-05
7.64087e-06
8.36677e-05
8.36041e-06
8.40283e-05
9.08114e-06
8.44294e-05
9.80099e-06
8.48736e-05
1.05171e-05
8.53635e-05
1.12254e-05
8.59011e-05
1.19198e-05
8.64878e-05
1.25896e-05
8.71231e-05
1.32111e-05
1.37209e-05
8.17791e-05
6.12785e-07
8.18245e-05
1.33389e-06
8.18913e-05
1.946e-06
8.19819e-05
2.60657e-06
8.20975e-05
3.28072e-06
8.22388e-05
3.95329e-06
8.24068e-05
4.62752e-06
8.26027e-05
5.30502e-06
8.28278e-05
5.98537e-06
8.30836e-05
6.66806e-06
8.33721e-05
7.35243e-06
8.36951e-05
8.03742e-06
8.40547e-05
8.72148e-06
8.44532e-05
9.4025e-06
8.48927e-05
1.00776e-05
8.53751e-05
1.0743e-05
8.5902e-05
1.13928e-05
8.64744e-05
1.20173e-05
8.70911e-05
1.25943e-05
1.30651e-05
8.17906e-05
5.91525e-07
8.18369e-05