/*--------------------------------*- C++ -*----------------------------------*\
  =========                 |
  \\      /  F ield         | OpenFOAM: The Open Source CFD Toolbox
   \\    /   O peration     | Website:  https://openfoam.org
    \\  /    A nd           | Version:  6
     \\/     M anipulation  |
\*---------------------------------------------------------------------------*/
FoamFile
{
    version     2.0;
    format      ascii;
    class       volVectorField;
    location    "1";
    object      U;
}
// * * * * * * * * * * * * * * * * * * * * * * * * * * * * * * * * * * * * * //

dimensions      [0 1 -1 0 0 0 0];

internalField   nonuniform List<vector> 
5600
(
(1.85485 0.00510686 3.74e-19)
(1.2082 0.00584863 -6.42933e-18)
(0.975539 0.00535173 6.41495e-18)
(1.00982 0.00422589 0)
(1.03849 0.00379257 0)
(1.03414 0.0041016 0)
(1.02466 0.00458186 -1.19697e-17)
(1.01782 0.00504627 1.19425e-17)
(1.01147 0.00556144 0)
(1.00425 0.0061743 0)
(0.996083 0.00688759 0)
(0.987015 0.00770329 0)
(0.976941 0.00863337 0)
(0.965702 0.00969421 -2.35653e-17)
(0.953135 0.0109035 2.35126e-17)
(0.939062 0.0122788 -4.69212e-17)
(0.923285 0.0138334 4.68165e-17)
(0.905596 0.0155642 0)
(0.885792 0.0174291 -3.64142e-19)
(0.863713 0.0192906 0)
(1.86612 0.00917376 -3.68787e-19)
(1.2029 0.0124284 6.34042e-18)
(0.975028 0.0127971 -6.32858e-18)
(1.01275 0.0118265 0)
(1.04055 0.0115785 0)
(1.03536 0.0123564 2.44368e-17)
(1.02579 0.0135137 2.84114e-22)
(1.01903 0.0148027 -7.37525e-19)
(1.01272 0.0162945 1.38428e-22)
(1.00554 0.0180527 -2.35169e-17)
(0.997447 0.020093 0)
(0.988488 0.0224324 -4.75887e-17)
(0.978554 0.0251044 4.67678e-17)
(0.967493 0.0281525 0)
(0.95515 0.0316252 0)
(0.941355 0.0355712 0)
(0.925923 0.0400253 0)
(0.908655 0.0449753 -4.6332e-17)
(0.889352 0.050298 4.66063e-17)
(0.867766 0.0556392 4.5468e-17)
(1.87985 0.00991655 0)
(1.20089 0.0189672 0)
(0.973311 0.0212 0)
(1.01409 0.0195533 0)
(1.04233 0.0191735 2.34172e-17)
(1.03696 0.0204916 -2.41132e-17)
(1.02755 0.0223592 -1.45926e-18)
(1.02105 0.0244434 -7.28554e-19)
(1.01496 0.0268825 2.32796e-17)
(1.008 0.0297682 -2.17924e-17)
(1.00015 0.0331207 -1.45069e-18)
(0.991485 0.0369674 4.70786e-17)
(0.981896 0.0413613 -4.77325e-17)
(0.97125 0.0463703 1.44432e-18)
(0.959409 0.0520709 4.61512e-17)
(0.946225 0.0585392 -9.36072e-17)
(0.931533 0.0658295 -1.43861e-18)
(0.915149 0.0739205 4.59491e-17)
(0.896877 0.0826107 -1.43382e-18)
(0.876391 0.0913426 -7.16237e-19)
(1.89673 0.0120086 0)
(1.20019 0.0244656 -1.44371e-18)
(0.971046 0.0279626 0)
(1.01477 0.0261961 0)
(1.04397 0.0260207 0)
(1.0388 0.0279963 0)
(1.02976 0.0306488 1.43779e-18)
(1.02372 0.0335872 2.44186e-17)
(1.01806 0.037009 -2.29597e-17)
(1.01151 0.0410358 -1.43358e-18)
(1.00411 0.0456947 2.86436e-18)
(0.995948 0.0510244 0)
(0.986937 0.0570964 -4.43111e-17)
(0.976969 0.0640013 4.42674e-17)
(0.965937 0.0718407 4.56513e-17)
(0.953726 0.080716 -4.56062e-17)
(0.9402 0.0906996 9.25483e-17)
(0.925204 0.101765 -9.10344e-17)
(0.908561 0.11364 1.42104e-18)
(0.889896 0.125591 1.42023e-18)
(1.91651 0.0143 -5.60264e-18)
(1.19956 0.0291671 7.07583e-18)
(0.968417 0.0334939 -1.13327e-17)
(1.01541 0.031742 -1.13266e-17)
(1.04578 0.0319239 2.26452e-17)
(1.04093 0.0346322 2.26345e-17)
(1.03242 0.0381287 -2.2625e-17)
(1.02701 0.0419759 1.41349e-18)
(1.02194 0.0464167 1.4129e-18)
(1.01598 0.051594 4.5194e-17)
(1.00921 0.0575406 -9.03499e-17)
(1.00174 0.0643051 1.41081e-18)
(0.993527 0.0719751 4.65473e-17)
(0.984489 0.080661 1.40993e-18)
(0.974561 0.0904857 -4.36896e-17)
(0.963671 0.101571 4.78969e-17)
(0.951727 0.114006 1.40813e-18)
(0.938608 0.127757 0)
(0.924181 0.14249 1.40692e-18)
(0.908051 0.157313 1.40671e-18)
(1.93884 0.0164682 5.48251e-18)
(1.19864 0.0331656 -5.53985e-18)
(0.965475 0.0379325 1.38745e-18)
(1.01628 0.0361343 0)
(1.04796 0.0367528 2.22053e-17)
(1.0435 0.0402723 -2.22099e-17)
(1.0356 0.0446741 1.38841e-18)
(1.03093 0.0494792 -4.7216e-17)
(1.02656 0.0549666 -2.77813e-18)
(1.0213 0.0612917 8.89131e-17)
(1.01529 0.0684883 -4.72445e-17)
(1.00868 0.0766128 -1.38983e-18)
(1.00144 0.0857662 -4.72635e-17)
(0.993554 0.0960743 -4.58827e-17)
(0.98499 0.107676 8.76101e-17)
(0.97573 0.120709 8.62368e-17)
(0.965733 0.135272 -9.04261e-17)
(0.954926 0.151327 8.7661e-17)
(0.943227 0.168483 -1.79529e-16)
(0.930249 0.185706 8.77066e-17)
(1.96336 0.0186449 0)
(1.19693 0.0363405 0)
(0.962124 0.0409946 -1.3565e-18)
(1.01755 0.0391689 2.17213e-17)
(1.0507 0.0404071 -2.17405e-17)
(1.0466 0.044865 -1.35989e-18)
(1.03935 0.0502486 -1.36112e-18)
(1.03545 0.0560589 1.36232e-18)
(1.03183 0.0626071 1.36352e-18)
(1.02733 0.0700536 0)
(1.02216 0.0784317 4.50755e-17)
(1.01651 0.0878046 2.08439e-22)
(1.0104 0.0982846 -4.24178e-17)
(1.00383 0.110009 -8.628e-17)
(0.996842 0.123127 1.75452e-16)
(0.989464 0.137785 -8.64303e-17)
(0.981714 0.154087 8.78792e-17)
(0.973566 0.171992 -8.65808e-17)
(0.965 0.191062 -8.80319e-17)
(0.955654 0.210151 8.67345e-17)
(1.98956 0.0218599 0)
(1.19323 0.0382387 1.32081e-18)
(0.958093 0.0418917 -2.11856e-17)
(1.0195 0.0406263 2.25459e-17)
(1.05417 0.0429233 -2.12509e-17)
(1.05023 0.0484646 2.39457e-17)
(1.04357 0.0549059 0)
(1.04045 0.0617623 1.33462e-18)
(1.03756 0.0693573 0)
(1.03383 0.0778578 -1.33892e-18)
(1.02955 0.0873024 4.29149e-17)
(1.02493 0.0977634 -4.2984e-17)
(1.02004 0.109362 -8.61072e-17)
(1.01493 0.122244 8.48983e-17)
(1.00967 0.136562 0)
(1.00436 0.152463 0)
(0.999077 0.170055 8.66645e-17)
(0.993843 0.189296 1.91506e-22)
(0.9887 0.209727 -8.6944e-17)
(0.983326 0.230159 8.84383e-17)
(2.01697 0.0306763 -4.44911e-18)
(1.1843 0.0363365 4.4987e-18)
(0.953522 0.0379204 0)
(1.02306 0.0402659 -1.94049e-18)
(1.05847 0.0446957 -2.07453e-17)
(1.05416 0.0513294 -2.20945e-17)
(1.04804 0.0588566 8.33777e-17)
(1.04564 0.0668106 -4.30944e-17)
(1.04343 0.0754235 -4.18885e-17)
(1.04045 0.084882 4.3301e-17)
(1.03708 0.0952563 -8.41792e-17)
(1.03355 0.106633 1.68763e-16)
(1.02996 0.119137 1.86226e-22)
(1.02639 0.132914 -8.4788e-17)
(1.02296 0.148112 0)
(1.01984 0.16487 8.51978e-17)
(1.01715 0.183289 -1.70807e-16)
(1.01498 0.203345 8.56101e-17)
(1.01348 0.224588 0)
(1.01238 0.245805 0)
(2.04652 0.0500916 -5.55681e-18)
(1.16195 0.0236833 4.37248e-18)
(0.952099 0.0252419 0)
(1.03175 0.0386606 2.07795e-17)
(1.0636 0.0467848 -2.0214e-17)
(1.05772 0.0539994 -4.05548e-17)
(1.05237 0.062433 -2.65405e-22)
(1.05073 0.0715035 8.16299e-17)
(1.04911 0.0810788 -8.18919e-17)
(1.04688 0.0913792 4.10776e-17)
(1.04446 0.102556 -8.24201e-17)
(1.04208 0.114717 8.26862e-17)
(1.03984 0.127983 -8.29539e-17)
(1.03785 0.142487 8.32228e-17)
(1.03629 0.158359 8.34932e-17)
(1.03535 0.175714 -8.3765e-17)
(1.03525 0.194631 0)
(1.03617 0.215111 -8.43124e-17)
(1.03837 0.236867 8.45887e-17)
(1.04167 0.258727 8.48417e-17)
(0.836003 0.020914 0)
(0.79837 0.0231468 0)
(0.753168 0.0257091 4.23927e-17)
(0.698317 0.0286546 -2.30106e-17)
(0.631032 0.0319914 -2.51625e-17)
(0.547759 0.0355645 4.16273e-17)
(0.444705 0.0388077 -1.54604e-17)
(0.318203 0.0403544 3.48888e-17)
(0.166902 0.0374455 0)
(0.0467371 0.0212609 0)
(0.840741 0.0606169 -1.83943e-17)
(0.803843 0.067416 -5.92884e-17)
(0.759373 0.07525 -2.13234e-17)
(0.705407 0.0842786 2.3148e-17)
(0.639159 0.0945313 2.53086e-17)
(0.55703 0.105531 -5.58139e-17)
(0.455099 0.115573 4.66264e-17)
(0.329442 0.120466 -8.76362e-17)
(0.177656 0.111486 -1.00361e-17)
(0.0531053 0.0635126 6.41623e-17)
(0.850785 0.0995136 1.84703e-17)
(0.815253 0.110706 -1.98448e-17)
(0.772202 0.123635 4.28256e-17)
(0.719956 0.138534 4.64958e-17)
(0.655718 0.155452 -5.08449e-17)
(0.575805 0.173583 -2.80359e-17)
(0.476031 0.190108 3.12365e-17)
(0.351818 0.198047 -5.28486e-17)
(0.199036 0.182663 8.07221e-17)
(0.0658515 0.104234 -1.52552e-16)
(0.866474 0.136749 3.69669e-17)
(0.832832 0.152159 0)
(0.791776 0.16996 0)
(0.741972 0.190427 -4.65308e-17)
(0.680593 0.213622 5.0883e-17)
(0.603817 0.238412 2.07669e-21)
(0.507073 0.260873 0)
(0.38478 0.271346 7.05281e-17)
(0.230442 0.249484 -6.0593e-17)
(0.0845681 0.142193 1.87929e-16)
(0.887505 0.17106 -3.68716e-17)
(0.856206 0.190369 0)
(0.817638 0.212702 8.54749e-17)
(0.770903 0.238318 0)
(0.713108 0.267297 5.07268e-17)
(0.640252 0.298169 5.59387e-17)
(0.547258 0.325936 0)
(0.427267 0.338393 1.40553e-16)
(0.270792 0.310107 -2.01226e-17)
(0.108548 0.176248 -7.01878e-17)
(0.913143 0.201528 1.96875e-21)
(0.884563 0.224307 -1.57481e-16)
(0.848901 0.250725 -2.62493e-21)
(0.805759 0.28097 0)
(0.752146 0.315128 -5.03942e-17)
(0.683835 0.351398 -5.55507e-17)
(0.595152 0.38373 0)
(0.477731 0.39754 -1.39475e-16)
(0.318566 0.362904 -1.59623e-16)
(0.136828 0.205419 2.31835e-17)
(0.942387 0.227516 7.30575e-22)
(0.916802 0.253293 1.08091e-21)
(0.884372 0.28329 1.68265e-16)
(0.845236 0.317587 -1.2538e-21)
(0.796249 0.356259 -9.97539e-17)
(0.73293 0.397153 -1.09919e-16)
(0.648932 0.433197 -3.05853e-17)
(0.534209 0.447605 3.44553e-17)
(0.37187 0.406644 1.18212e-16)
(0.168203 0.228925 2.28656e-16)
(0.974111 0.248683 -1.73599e-21)
(0.951615 0.277022 7.7036e-17)
(0.922625 0.310096 -1.66115e-16)
(0.887771 0.347863 -4.50494e-17)
(0.843674 0.390362 2.45999e-16)
(0.7856 0.435056 1.08371e-16)
(0.706486 0.473872 -1.20524e-16)
(0.5945 0.488028 0)
(0.428619 0.440712 3.87461e-17)
(0.20132 0.24633 -4.04206e-16)
(1.00716 0.265119 -1.20413e-21)
(0.987318 0.295589 -7.58424e-17)
(0.961801 0.331304 3.94308e-21)
(0.931362 0.372035 -8.86275e-17)
(0.892302 0.417737 9.67406e-17)
(0.839702 0.465463 5.324e-17)
(0.76575 0.506156 5.91723e-17)
(0.656682 0.519247 -3.32671e-17)
(0.486996 0.465505 3.79536e-17)
(0.234845 0.25773 1.7573e-16)
(1.03953 0.278436 -6.9385e-17)
(1.02123 0.310567 -7.44444e-17)
(0.999349 0.34855 8.02013e-17)
(0.973485 0.39176 8.69052e-17)
(0.939745 0.439936 -1.89641e-16)
(0.893079 0.48962 0)
(0.824726 0.530802 0)
(0.718594 0.541489 -3.25186e-17)
(0.544341 0.480968 3.705e-17)
(0.266726 0.262886 0)
(1.06902 0.29908 6.78582e-17)
(1.05138 0.332232 7.28859e-17)
(1.03307 0.370549 0)
(1.0111 0.413951 -8.52501e-17)
(0.981836 0.461354 0)
(0.939846 0.50851 -1.0257e-16)
(0.875237 0.544827 -5.70508e-17)
(0.769836 0.548441 -6.42245e-17)
(0.590085 0.48021 -1.46782e-16)
(0.291239 0.258282 1.70283e-16)
(1.10057 0.317577 1.59525e-21)
(1.08653 0.351313 -1.48231e-16)
(1.07176 0.389143 2.19954e-21)
(1.05328 0.431468 8.67314e-17)
(1.02746 0.476289 0)
(0.98814 0.518503 1.04423e-16)
(0.924185 0.547075 0)
(0.815746 0.540797 1.30907e-16)
(0.627677 0.463478 1.52951e-20)
(0.30926 0.243613 -1.73773e-16)
(1.13341 0.331977 6.99782e-17)
(1.12344 0.365252 -7.51803e-17)
(1.11211 0.401885 2.43291e-16)
(1.09668 0.442109 -8.80125e-17)
(1.07337 0.483164 -9.61928e-17)
(1.03527 0.519247 -5.30123e-17)
(0.970132 0.53908 2.40286e-21)
(0.856834 0.522412 6.65196e-17)
(0.659424 0.436514 2.66382e-16)
(0.32274 0.223044 4.42104e-17)
(1.16727 0.341431 -1.41623e-16)
(1.16107 0.373518 0)
(1.15279 0.408201 -4.51107e-21)
(1.13978 0.445321 8.90972e-17)
(1.11794 0.481528 2.4352e-16)
(1.07965 0.510542 5.36919e-17)
(1.0117 0.521135 1.19602e-16)
(0.892087 0.494395 -1.01141e-16)
(0.684627 0.401512 -1.93004e-16)
(0.331562 0.198515 1.79479e-16)
(1.20144 0.345624 7.14823e-17)
(1.19845 0.375852 7.68032e-17)
(1.1926 0.407841 -1.65751e-16)
(1.18113 0.440941 -4.49899e-17)
(1.15948 0.471348 -1.96767e-16)
(1.11935 0.492528 -1.62739e-16)
(1.04682 0.493625 -2.41736e-16)
(0.91941 0.457508 1.36341e-16)
(0.701493 0.359784 0)
(0.335093 0.171259 -2.04356e-16)
(1.23492 0.344353 1.07957e-16)
(1.23442 0.372108 0)
(1.23016 0.40073 0)
(1.21909 0.429043 0)
(1.19617 0.45293 0)
(1.15248 0.465823 1.09308e-16)
(1.07361 0.457554 1.21804e-16)
(0.937135 0.413169 0)
(0.708892 0.313061 0)
(0.333127 0.142542 -9.16159e-17)
(1.26664 0.33764 -3.6139e-17)
(1.26777 0.362389 -8.71437e-22)
(1.26402 0.387074 -4.19084e-17)
(1.25206 0.410013 4.55058e-17)
(1.22629 0.42693 -4.97712e-17)
(1.17731 0.431443 1.3726e-16)
(1.09054 0.414363 -3.05957e-17)
(0.944181 0.363215 6.90508e-17)
(0.706398 0.263328 -1.97853e-17)
(0.325852 0.113614 9.2126e-17)
(1.29553 0.325743 7.2392e-17)
(1.29726 0.347056 -3.88929e-17)
(1.29282 0.36736 0)
(1.27853 0.384537 -4.5582e-17)
(1.24829 0.394315 0)
(1.19242 0.390708 -5.49997e-17)
(1.09653 0.365753 -3.06479e-17)
(0.940036 0.309655 3.45874e-17)
(0.694164 0.21258 0)
(0.313746 0.0856064 -1.15388e-17)
(1.32056 0.309119 -5.42339e-17)
(1.32178 0.326696 3.8849e-17)
(1.31537 0.342319 0)
(1.29732 0.353541 0)
(1.26116 0.356266 4.97947e-17)
(1.19713 0.345101 -2.74664e-17)
(1.09139 0.313522 -3.06101e-17)
(0.925082 0.254503 -6.90932e-17)
(0.673064 0.162725 3.95956e-17)
(0.297564 0.0595097 -5.18511e-17)
(1.34108 0.288396 5.40316e-17)
(1.34075 0.301952 -5.71856e-22)
(1.33117 0.312603 -2.08823e-17)
(1.30801 0.317739 0)
(1.26457 0.313636 -2.47981e-17)
(1.19128 0.295722 -1.36757e-17)
(1.07522 0.259101 3.8102e-17)
(0.899754 0.19949 8.59865e-18)
(0.643775 0.115501 -4.43413e-17)
(0.277814 0.0361751 5.16027e-17)
(1.08307 0.274984 -4.17726e-16)
(1.11225 0.291711 1.03328e-16)
(1.14196 0.305155 0)
(1.17257 0.314395 1.02207e-16)
(1.20372 0.319167 -3.35234e-23)
(1.23448 0.319284 -1.56263e-18)
(1.26397 0.314713 7.77349e-19)
(1.29128 0.305607 -4.99289e-17)
(1.31555 0.292291 4.97714e-17)
(1.33605 0.275324 -2.46388e-17)
(1.09332 0.262456 2.08322e-16)
(1.12022 0.276482 0)
(1.14747 0.287913 0)
(1.17548 0.295901 1.0047e-16)
(1.20417 0.300144 1.57083e-18)
(1.2327 0.300473 -7.80611e-19)
(1.26029 0.296836 7.76655e-19)
(1.28618 0.289335 4.87316e-17)
(1.30964 0.278203 -4.93526e-17)
(1.32986 0.263953 2.46237e-17)
(1.10313 0.251888 0)
(1.12744 0.263664 -1.02964e-16)
(1.15222 0.273054 1.0203e-16)
(1.17769 0.279617 -1.01224e-16)
(1.20394 0.283073 0)
(1.23021 0.283272 -7.80915e-19)
(1.25585 0.280164 -9.86981e-17)
(1.28019 0.273816 0)
(1.30267 0.2644 0)
(1.32242 0.252376 -2.46513e-17)
(1.1118 0.241676 0)
(1.13395 0.251449 1.17618e-21)
(1.15646 0.259088 -1.01947e-16)
(1.17957 0.264391 1.01185e-16)
(1.20346 0.267122 7.85418e-19)
(1.2275 0.267149 -1.00769e-16)
(1.25115 0.264427 -2.67148e-22)
(1.27388 0.259 0)
(1.29521 0.250995 0)
(1.31429 0.240806 0)
(1.11899 0.23171 -1.03568e-16)
(1.13932 0.239844 2.05382e-16)
(1.15988 0.24605 7.95793e-19)
(1.18091 0.250284 -1.01938e-16)
(1.20267 0.252363 -7.85427e-19)
(1.22464 0.252188 -1.00022e-16)
(1.2464 0.249727 1.50175e-16)
(1.26751 0.245011 -3.87732e-19)
(1.28762 0.238137 -4.91163e-17)
(1.30589 0.229441 -2.47074e-17)
(1.12477 0.221951 2.06747e-16)
(1.14351 0.228788 -1.02555e-16)
(1.16237 0.233859 1.01779e-16)
(1.18162 0.23722 1.00319e-16)
(1.20149 0.238745 1.02108e-16)
(1.22162 0.238367 9.92741e-17)
(1.24163 0.236076 -4.98297e-17)
(1.26121 0.231899 -3.88058e-19)
(1.28008 0.225918 3.86841e-19)
(1.29747 0.218423 2.47352e-17)
(1.1293 0.212394 -1.03582e-16)
(1.1466 0.218184 -1.02018e-16)
(1.16398 0.22236 -1.01696e-16)
(1.18168 0.22503 -1.01072e-16)
(1.19993 0.226111 -9.9753e-17)
(1.21842 0.225564 9.8526e-17)
(1.23687 0.223396 -4.90815e-17)
(1.25503 0.219639 0)
(1.27271 0.214367 9.92062e-17)
(1.28917 0.207838 0)
(1.13272 0.203057 0)
(1.14873 0.207988 1.02284e-16)
(1.16481 0.211456 -1.01612e-16)
(1.18116 0.213586 7.89316e-19)
(1.19799 0.214324 -1.0211e-16)
(1.21505 0.213653 -1.00124e-16)
(1.23212 0.211591 5.06708e-17)
(1.24898 0.208175 -4.97557e-17)
(1.26554 0.203476 -9.93067e-17)
(1.28109 0.19773 0)
(1.13517 0.193961 -1.02791e-16)
(1.15003 0.198184 0)
(1.16494 0.201088 1.0153e-16)
(1.18012 0.202799 1.01785e-16)
(1.19571 0.20328 1.25604e-22)
(1.21152 0.202527 9.93756e-17)
(1.22736 0.200568 0)
(1.24307 0.19744 4.97974e-17)
(1.25858 0.193216 4.98977e-17)
(1.27327 0.188113 -2.50135e-17)
(1.13679 0.185125 1.02599e-16)
(1.15061 0.188762 -1.02013e-16)
(1.16449 0.191216 1.01446e-16)
(1.17863 0.192601 -1.00169e-16)
(1.19313 0.192894 1.99512e-16)
(1.20784 0.192098 -9.86267e-17)
(1.2226 0.190243 -7.80522e-19)
(1.23728 0.187369 -3.89367e-19)
(1.25184 0.183546 -4.93654e-17)
(1.26571 0.178979 2.48476e-17)
(1.13771 0.176564 0)
(1.15059 0.179716 1.01879e-16)
(1.16355 0.181808 -1.01363e-16)
(1.17676 0.182941 -7.88427e-19)
(1.19031 0.1831 -9.89714e-17)
(1.20404 0.18229 -7.83025e-19)
(1.21785 0.180543 -7.80989e-19)
(1.23161 0.177898 7.79402e-19)
(1.24531 0.174423 4.98044e-17)
(1.25841 0.17031 2.4876e-17)
(1.13803 0.168288 1.02614e-16)
(1.15008 0.171038 -3.97442e-19)
(1.16221 0.172838 0)
(1.17459 0.173776 0)
(1.18729 0.173842 7.85487e-19)
(1.20016 0.173041 -5.16967e-17)
(1.21312 0.171405 1.30992e-23)
(1.22605 0.16897 5.03134e-17)
(1.23897 0.165801 3.89495e-19)
(1.25138 0.162081 -2.49041e-17)
(1.13787 0.160303 -1.02024e-16)
(1.14916 0.162719 -1.0161e-16)
(1.16055 0.164284 -1.01197e-16)
(1.17219 0.165071 -7.87834e-19)
(1.18412 0.165074 1.29336e-23)
(1.19623 0.164299 5.01472e-17)
(1.20842 0.162774 7.81966e-19)
(1.22062 0.160534 9.74609e-23)
(1.23283 0.15764 0)
(1.24459 0.154264 0)
(1.1373 0.152612 -1.02231e-16)
(1.14791 0.15475 2.0335e-16)
(1.15863 0.156124 1.01115e-16)
(1.1696 0.156795 0)
(1.18085 0.156758 -9.97592e-17)
(1.19227 0.156019 4.93803e-17)
(1.20378 0.154605 0)
(1.21531 0.152547 -5.0398e-17)
(1.22688 0.149901 -2.45879e-17)
(1.23805 0.14683 0)
(1.13641 0.145213 1.02041e-16)
(1.1464 0.147119 -1.01739e-16)
(1.15652 0.148338 0)
(1.16689 0.14892 9.99801e-17)
(1.17751 0.14886 1.00546e-16)
(1.18831 0.148166 -1.00362e-16)
(1.19921 0.14686 -4.93243e-17)
(1.21014 0.14497 0)
(1.22112 0.14255 2.50035e-17)
(1.23175 0.139752 0)
(1.13526 0.138103 1.01455e-16)
(1.14469 0.139816 0)
(1.15426 0.140908 0)
(1.16408 0.141421 -9.99424e-17)
(1.17415 0.141351 -1.08434e-23)
(1.18438 0.140705 4.86294e-17)
(1.19472 0.139503 5.09215e-17)
(1.20511 0.137771 -3.91339e-19)
(1.21555 0.135558 1.95542e-19)
(1.22569 0.133005 1.95453e-19)
(1.1339 0.131275 -2.02533e-16)
(1.14283 0.132826 1.01077e-16)
(1.1519 0.133815 7.88014e-19)
(1.16123 0.134275 -7.86654e-19)
(1.17078 0.134204 -5.02734e-17)
(1.1805 0.133609 0)
(1.19033 0.132507 0)
(1.20022 0.13092 5.0134e-17)
(1.21017 0.128896 0)
(1.21985 0.126565 0)
(1.13238 0.124721 1.01474e-16)
(1.14086 0.126136 -1.01339e-16)
(1.14948 0.127041 7.8737e-19)
(1.15835 0.127461 -1.02226e-16)
(1.16744 0.127396 5.10592e-17)
(1.17669 0.126851 0)
(1.18606 0.125843 -7.84369e-19)
(1.19548 0.124392 -4.97842e-17)
(1.20498 0.122541 1.9594e-19)
(1.21424 0.120412 1.95899e-19)
(1.13075 0.118434 -1.01285e-16)
(1.13881 0.119734 3.938e-19)
(1.14702 0.120569 -1.00701e-16)
(1.15547 0.120959 1.00615e-16)
(1.16414 0.120903 7.85526e-19)
(1.17296 0.120409 -7.85144e-19)
(1.1819 0.119489 4.9446e-17)
(1.19091 0.118164 7.84669e-19)
(1.19999 0.116471 0)
(1.20885 0.114527 0)
(1.12903 0.112402 -3.93083e-19)
(1.13671 0.113604 1.01073e-16)
(1.14454 0.114381 1.00619e-16)
(1.15262 0.114748 -1.01362e-16)
(1.1609 0.114706 5.10597e-17)
(1.16933 0.11426 0)
(1.17788 0.113424 -5.02618e-17)
(1.18649 0.112214 -3.92662e-19)
(1.19519 0.110667 3.92676e-19)
(1.20369 0.10889 0)
(1.12725 0.106615 3.92919e-19)
(1.13458 0.107734 -1.00941e-16)
(1.14208 0.108462 -1.00537e-16)
(1.14981 0.108812 1.00538e-16)
(1.15773 0.108784 -1.00549e-16)
(1.1658 0.108385 0)
(1.17399 0.107626 0)
(1.18224 0.106523 -3.92993e-19)
(1.19058 0.10511 -2.49602e-17)
(1.19874 0.103487 2.53577e-17)
(1.12544 0.101062 9.99413e-17)
(1.13246 0.102108 -1.00024e-16)
(1.13964 0.102795 1.00454e-16)
(1.14705 0.103133 -5.1035e-17)
(1.15464 0.103121 7.85571e-19)
(1.16238 0.102766 0)
(1.17024 0.102079 -5.03239e-17)
(1.17816 0.101075 -3.93325e-19)
(1.18617 0.0997844 2.55759e-17)
(1.19402 0.0983014 -2.51899e-17)
(1.12361 0.0957317 0)
(1.13035 0.0967155 1.00285e-16)
(1.13724 0.0973674 -1.00372e-16)
(1.14436 0.0976948 5.10155e-17)
(1.15165 0.0976989 4.94892e-17)
(1.15909 0.097386 0)
(1.16663 0.0967658 4.95681e-17)
(1.17425 0.0958521 3.93666e-19)
(1.18195 0.0946743 1.96942e-19)
(1.18951 0.0933198 1.97023e-19)
(1.12179 0.0906134 3.90481e-19)
(1.12826 0.0915418 -3.91229e-19)
(1.13489 0.0921631 1.0029e-16)
(1.14174 0.0924828 7.8455e-19)
(1.14876 0.0925026 -5.02748e-17)
(1.15591 0.0922287 4.9547e-17)
(1.16317 0.0916702 -4.95987e-17)
(1.17051 0.09084 2.40336e-17)
(1.17792 0.0897657 5.91422e-19)
(1.18521 0.0885288 -1.97249e-19)
(1.11999 0.0856957 9.93897e-17)
(1.12622 0.0865748 3.90718e-19)
(1.13261 0.0871689 0)
(1.13921 0.0874824 0)
(1.14597 0.0875172 2.35607e-23)
(1.15286 0.0872795 -5.03503e-17)
(1.15986 0.086778 1.00046e-16)
(1.16693 0.0860246 3.94346e-19)
(1.17408 0.0850453 1.97345e-19)
(1.18111 0.0839164 1.28359e-17)
(1.11822 0.0809678 -9.92071e-17)
(1.12423 0.0818023 -3.90208e-19)
(1.13039 0.082372 -5.00628e-17)
(1.13676 0.0826801 0)
(1.14329 0.082729 5.0275e-17)
(1.14994 0.0825247 0)
(1.1567 0.0820755 -4.96598e-17)
(1.16353 0.0813927 -2.64422e-17)
(1.17042 0.0805008 3.95091e-19)
(1.17722 0.0794708 1.36245e-23)
(1.11649 0.076419 -9.98014e-17)
(1.12229 0.0772127 3.89698e-19)
(1.12826 0.0777599 5.00218e-17)
(1.13441 0.078063 -7.83648e-19)
(1.14072 0.0781248 7.8555e-19)
(1.14715 0.0779511 0)
(1.15368 0.07755 -7.88734e-19)
(1.16028 0.0769321 3.95e-19)
(1.16695 0.0761203 1.97749e-19)
(1.17353 0.0751813 -1.24696e-17)
(1.1148 0.0720392 9.88433e-17)
(1.12042 0.0727949 3.8919e-19)
(1.1262 0.0733209 -7.80947e-19)
(1.13216 0.0736191 1.5667e-18)
(1.13827 0.0736923 -7.8555e-19)
(1.14449 0.0735466 0)
(1.15082 0.0731895 -2.52552e-17)
(1.1572 0.0726311 0)
(1.16366 0.0718932 0)
(1.17003 0.0710376 1.26821e-17)
(1.11317 0.0678181 4.95244e-17)
(1.11862 0.0685381 0)
(1.12422 0.0690439 0)
(1.13 0.0693368 -7.83045e-19)
(1.13593 0.0694202 -4.94894e-17)
(1.14196 0.0692997 0)
(1.14809 0.0689828 2.60605e-17)
(1.15429 0.0684791 -1.187e-18)
(1.16054 0.0678089 3.96308e-19)
(1.16672 0.0670301 -1.26967e-17)
(1.1116 0.0637463 -9.92538e-17)
(1.11689 0.0644322 3.88177e-19)
(1.12234 0.0649181 7.79668e-19)
(1.12795 0.0652054 -5.16613e-17)
(1.1337 0.0652973 1.02121e-16)
(1.13957 0.0651996 -7.88041e-19)
(1.14552 0.0649193 2.52863e-17)
(1.15153 0.0644657 -3.95999e-19)
(1.1576 0.0638577 1.98359e-19)
(1.1636 0.0631496 1.98616e-19)
(1.1101 0.0598143 4.8958e-17)
(1.11525 0.0604672 3.87671e-19)
(1.12054 0.0609336 0)
(1.12601 0.0612145 4.9294e-17)
(1.1316 0.0613134 -4.94893e-17)
(1.1373 0.061236 2.52256e-17)
(1.14308 0.060989 1.90089e-24)
(1.14893 0.0605812 -3.96335e-19)
(1.15482 0.0600306 3.97124e-19)
(1.16066 0.0593875 0)
(1.10867 0.056013 -3.8479e-19)
(1.11368 0.0566338 3.87167e-19)
(1.11884 0.0570806 0)
(1.12416 0.0573543 -5.00571e-17)
(1.12961 0.0574587 7.8554e-19)
(1.13516 0.0573993 -5.12566e-17)
(1.14079 0.0571825 -2.53175e-17)
(1.14648 0.0568167 -2.57838e-17)
(1.15221 0.0563187 1.98768e-19)
(1.1579 0.0557355 1.99076e-19)
(1.1073 0.0523338 -4.95475e-17)
(1.1122 0.0529229 4.98794e-17)
(1.11723 0.0533499 0)
(1.12242 0.0536157 5.08195e-17)
(1.12774 0.053724 -7.85544e-19)
(1.13315 0.0536803 2.52424e-17)
(1.13864 0.0534908 0)
(1.14418 0.0531634 2.50117e-17)
(1.14977 0.0527139 5.96912e-19)
(1.15531 0.0521858 -1.99307e-19)
(1.10602 0.0487683 4.86904e-17)
(1.1108 0.049326 3.86119e-19)
(1.11572 0.0497327 7.77114e-19)
(1.12079 0.0499897 -7.81538e-19)
(1.12598 0.0501004 0)
(1.13126 0.0500704 2.52508e-17)
(1.13662 0.0499055 -2.61409e-17)
(1.14203 0.0496132 2.58276e-17)
(1.14748 0.0492083 1.99178e-19)
(1.15289 0.0487311 1.29699e-17)
(1.1048 0.0453083 -4.89844e-17)
(1.10948 0.0458346 -4.93643e-17)
(1.1143 0.0462208 0)
(1.11926 0.0464679 0)
(1.12433 0.0465797 0)
(1.1295 0.0465614 -5.05183e-17)
(1.13474 0.0464185 7.92635e-19)
(1.14003 0.0461583 -2.6645e-17)
(1.14535 0.0457944 3.98764e-19)
(1.15064 0.0453642 -1.27852e-17)
(1.10367 0.0419462 -3.81949e-19)
(1.10825 0.042441 3.85159e-19)
(1.11298 0.0428061 -7.75839e-19)
(1.11783 0.0430424 7.80931e-19)
(1.1228 0.0431539 7.8553e-19)
(1.12786 0.0431454 -7.8961e-19)
(1.13299 0.0430223 2.4587e-17)
(1.13816 0.0427913 3.98029e-19)
(1.14337 0.0424653 3.99176e-19)
(1.14855 0.0420785 0)
(1.10261 0.0386743 4.84251e-17)
(1.10711 0.0391375 3.84659e-19)
(1.11175 0.0394808 2.48065e-17)
(1.11651 0.0397056 7.80622e-19)
(1.12139 0.0398153 -4.88742e-24)
(1.12635 0.0398149 -7.89872e-19)
(1.13137 0.0397095 0)
(1.13644 0.0395052 0)
(1.14154 0.0392141 1.27868e-17)
(1.14661 0.0388675 0)
(1.10163 0.0354855 3.80607e-19)
(1.10606 0.0359167 -3.84161e-19)
(1.11061 0.0362378 -2.55608e-17)
(1.11529 0.0364499 4.68903e-24)
(1.12008 0.0365568 7.85526e-19)
(1.12495 0.0365629 2.52843e-17)
(1.12988 0.0364731 2.54114e-17)
(1.13485 0.0362933 -3.98702e-19)
(1.13986 0.0360343 -1.24e-17)
(1.14483 0.035725 0)
(1.10074 0.0323728 -3.79916e-19)
(1.10509 0.0327717 3.83663e-19)
(1.10957 0.0330698 -2.47658e-17)
(1.11418 0.0332686 0)
(1.11888 0.0333713 0)
(1.12367 0.0333825 0)
(1.12852 0.0333066 -2.54271e-17)
(1.1334 0.0331491 -1.31684e-17)
(1.13832 0.0329198 4.00417e-19)
(1.14321 0.0326451 0)
(1.09992 0.0293294 -3.79228e-19)
(1.10421 0.0296956 3.83166e-19)
(1.10862 0.0299702 2.39722e-17)
(1.11316 0.0301547 4.50675e-24)
(1.11779 0.0302523 7.85517e-19)
(1.1225 0.0302672 0)
(1.12727 0.0302035 7.95086e-19)
(1.13208 0.0300663 1.15821e-17)
(1.13691 0.0298647 -1.24258e-17)
(1.14172 0.0296222 0)
(1.09918 0.0263489 0)
(1.10341 0.0266819 2.44908e-17)
(1.10777 0.0269324 2.47252e-17)
(1.11224 0.0271017 -7.79403e-19)
(1.11681 0.0271932 7.85511e-19)
(1.12146 0.0272106 0)
(1.12616 0.0271577 1.35248e-17)
(1.13089 0.0270392 -1.19918e-18)
(1.13565 0.0268631 1.30405e-17)
(1.14039 0.0266506 2.01171e-19)
(1.09851 0.0234249 -3.77857e-19)
(1.1027 0.0237242 -2.4077e-17)
(1.107 0.0239499 -2.39329e-17)
(1.11142 0.0241034 -4.36028e-24)
(1.11593 0.0241878 -7.85505e-19)
(1.12052 0.0242066 0)
(1.12516 0.0241632 -1.35332e-17)
(1.12983 0.0240618 4.0007e-19)
(1.13452 0.0239095 6.02497e-19)
(1.13919 0.0237252 -2.01406e-19)
(1.09793 0.0205512 3.77174e-19)
(1.10207 0.0208162 -3.81681e-19)
(1.10633 0.0210165 0)
(1.1107 0.0211536 0)
(1.11516 0.0212302 0)
(1.11969 0.0212494 -1.2663e-17)
(1.12427 0.0212143 -1.2745e-17)
(1.12889 0.0211285 -4.00408e-19)
(1.13352 0.0209985 2.01043e-19)
(1.13814 0.0208406 2.01642e-19)
(1.09742 0.0177216 -3.76493e-19)
(1.10152 0.0179519 3.81188e-19)
(1.10575 0.0181263 1.31029e-17)
(1.11007 0.0182463 -1.32343e-17)
(1.11449 0.0183143 0)
(1.11897 0.0183331 2.53343e-17)
(1.12351 0.0183053 1.27529e-17)
(1.12807 0.0182341 6.01127e-18)
(1.13265 0.0181249 -6.23875e-18)
(1.13722 0.0179918 2.01878e-19)
(1.09699 0.01493 -1.24019e-17)
(1.10106 0.0151252 1.25629e-17)
(1.10525 0.0152733 -1.2322e-17)
(1.10954 0.0153757 2.41236e-17)
(1.11392 0.0154345 7.85485e-19)
(1.11836 0.0154521 -2.53427e-17)
(1.12285 0.0154307 6.38037e-18)
(1.12738 0.0153729 -6.81861e-18)
(1.13191 0.0152834 6.84963e-18)
(1.13643 0.0151738 0)
(1.09663 0.0121706 1.23796e-17)
(1.10068 0.0123302 -3.80207e-19)
(1.10484 0.0124517 -7.69491e-19)
(1.1091 0.0125361 -1.16681e-17)
(1.11345 0.0125853 0)
(1.11786 0.0126011 1.26755e-17)
(1.12231 0.0125852 -7.18235e-18)
(1.1268 0.01254 -5.21869e-18)
(1.1313 0.0124689 -6.0501e-19)
(1.13578 0.0123816 2.02353e-19)
(1.09634 0.00943753 -1.19828e-17)
(1.10037 0.00956131 -2.12512e-24)
(1.10451 0.00965586 7.68859e-19)
(1.10875 0.00972203 -1.55514e-18)
(1.11307 0.0097611 1.57093e-18)
(1.11745 0.00977448 -7.13231e-18)
(1.12188 0.00976355 5.58972e-18)
(1.12634 0.00972989 3.61604e-18)
(1.1308 0.00967633 3.83573e-18)
(1.13526 0.00961017 -2.02591e-19)
(1.09613 0.00672487 1.15875e-17)
(1.10015 0.00681263 -1.17559e-17)
(1.10427 0.00688004 0)
(1.10849 0.00692761 0)
(1.11279 0.00695616 7.85456e-19)
(1.11715 0.00696664 5.54916e-18)
(1.12156 0.00695995 -6.3922e-18)
(1.12599 0.00693718 2.81489e-18)
(1.13044 0.00690031 -3.03137e-18)
(1.13487 0.00685446 2.02829e-19)
(1.09599 0.00402682 3.73118e-19)
(1.1 0.00407825 -3.78736e-19)
(1.10411 0.00411816 3.07039e-18)
(1.10832 0.00414671 -7.76952e-19)
(1.11261 0.00416425 3.1418e-18)
(1.11695 0.00417129 -2.37899e-18)
(1.12135 0.0041683 0)
(1.12576 0.00415588 -4.02471e-19)
(1.13019 0.00413515 4.04606e-19)
(1.13461 0.00410908 -8.12271e-19)
(1.09592 0.00133931 -3.73476e-19)
(1.09992 0.0013553 3.79325e-19)
(1.10403 0.00136799 -3.84606e-18)
(1.10823 0.00137732 7.78982e-19)
(1.11251 0.00138333 -1.57571e-18)
(1.11686 0.00138615 1.5915e-18)
(1.12124 0.00138589 0)
(1.12565 0.00138268 -4.04123e-19)
(1.13007 0.00137686 2.0318e-19)
(1.13448 0.00136933 1.0199e-18)
(2.07091 0.0469919 0)
(1.13081 0.00922978 0)
(0.961812 0.0169442 0)
(1.04599 0.0393695 0)
(1.06728 0.0491101 0)
(1.05942 0.0557024 0)
(1.05553 0.0643143 0)
(1.05464 0.0739068 0)
(1.05348 0.0838429 0)
(1.05192 0.0943629 0)
(1.05037 0.105699 0)
(1.04899 0.117962 0)
(1.04788 0.131254 0)
(1.04716 0.145688 0)
(1.04703 0.161374 0)
(1.04769 0.178403 0)
(1.04942 0.196817 0)
(1.05259 0.216552 0)
(1.05771 0.237269 0)
(1.06442 0.257601 0)
(2.07966 0.0299294 0)
(1.11212 0.014737 0)
(0.965142 0.0223901 0)
(1.05208 0.0393606 0)
(1.06845 0.0489403 0)
(1.06018 0.0564591 0)
(1.05742 0.0652828 0)
(1.05715 0.0748515 0)
(1.05644 0.0847851 0)
(1.05549 0.0952686 0)
(1.05467 0.106482 0)
(1.05409 0.118524 0)
(1.05386 0.131479 0)
(1.05411 0.145439 0)
(1.05502 0.160484 0)
(1.05683 0.176667 0)
(1.05978 0.193982 0)
(1.06424 0.212269 0)
(1.07063 0.23097 0)
(1.07805 0.248485 0)
(2.08435 0.01764 0)
(1.1019 0.0191489 0)
(0.963764 0.0266463 0)
(1.05328 0.0389509 0)
(1.06833 0.0484427 0)
(1.06034 0.0568355 0)
(1.05849 0.0658246 0)
(1.05887 0.0753231 0)
(1.05872 0.0852082 0)
(1.05842 0.0956072 0)
(1.05831 0.106648 0)
(1.0585 0.118413 0)
(1.05908 0.130975 0)
(1.0602 0.144403 0)
(1.06203 0.158748 0)
(1.06479 0.174029 0)
(1.0687 0.190198 0)
(1.07408 0.207051 0)
(1.08124 0.223988 0)
(1.08942 0.239533 0)
(2.088 0.0121572 0)
(1.09659 0.0196153 0)
(0.961423 0.0276328 0)
(1.05276 0.0382334 0)
(1.06769 0.0478208 0)
(1.06008 0.0567203 0)
(1.05895 0.065847 0)
(1.05996 0.0753292 0)
(1.06042 0.0851693 0)
(1.06076 0.0954637 0)
(1.06134 0.106311 0)
(1.06225 0.117785 0)
(1.06358 0.129946 0)
(1.06548 0.142841 0)
(1.06811 0.156501 0)
(1.07166 0.17092 0)
(1.07634 0.186027 0)
(1.08239 0.201611 0)
(1.09009 0.217107 0)
(1.09882 0.231124 0)
(2.09134 0.00979113 0)
(1.09387 0.0189819 0)
(0.959565 0.0274086 0)
(1.052 0.0373804 0)
(1.067 0.046982 0)
(1.05965 0.0561344 0)
(1.05907 0.0653643 0)
(1.06065 0.0748433 0)
(1.06167 0.0846238 0)
(1.06261 0.0947888 0)
(1.06382 0.105421 0)
(1.06539 0.116584 0)
(1.06739 0.128326 0)
(1.06997 0.140681 0)
(1.07329 0.153662 0)
(1.0775 0.167247 0)
(1.08279 0.181354 0)
(1.08936 0.195774 0)
(1.09743 0.209985 0)
(1.10652 0.222679 0)
(2.09466 0.00872045 0)
(1.09262 0.0183614 0)
(0.95836 0.0268936 0)
(1.05142 0.0364777 0)
(1.06647 0.0459818 0)
(1.05929 0.0552173 0)