/*--------------------------------*- C++ -*----------------------------------*\
  =========                 |
  \\      /  F ield         | OpenFOAM: The Open Source CFD Toolbox
   \\    /   O peration     | Website:  https://openfoam.org
    \\  /    A nd           | Version:  6
     \\/     M anipulation  |
\*---------------------------------------------------------------------------*/
FoamFile
{
    version     2.0;
    format      ascii;
    class       volScalarField;
    location    "0.65";
    object      p;
}
// * * * * * * * * * * * * * * * * * * * * * * * * * * * * * * * * * * * * * //

dimensions      [0 2 -2 0 0 0 0];

internalField   nonuniform List<scalar> 
5600
(
997.824
998.354
998.824
998.842
998.793
998.786
998.794
998.801
998.806
998.811
998.818
998.825
998.833
998.842
998.852
998.863
998.876
998.889
998.905
998.922
997.796
998.364
998.833
998.842
998.791
998.785
998.794
998.8
998.805
998.81
998.817
998.824
998.832
998.841
998.851
998.862
998.874
998.888
998.903
998.92
997.779
998.365
998.835
998.84
998.789
998.783
998.792
998.798
998.802
998.808
998.814
998.821
998.829
998.837
998.847
998.858
998.869
998.882
998.897
998.912
997.76
998.363
998.836
998.838
998.785
998.78
998.789
998.794
998.798
998.803
998.809
998.816
998.823
998.831
998.84
998.85
998.86
998.872
998.885
998.898
997.737
998.359
998.836
998.835
998.781
998.776
998.784
998.789
998.793
998.797
998.802
998.808
998.815
998.822
998.83
998.839
998.848
998.858
998.868
998.879
997.709
998.355
998.836
998.83
998.776
998.77
998.778
998.783
998.786
998.789
998.794
998.799
998.805
998.811
998.817
998.824
998.832
998.84
998.848
998.855
997.679
998.351
998.836
998.826
998.769
998.764
998.771
998.775
998.777
998.78
998.784
998.788
998.793
998.798
998.803
998.808
998.813
998.818
998.823
998.827
997.645
998.347
998.837
998.82
998.762
998.756
998.763
998.766
998.768
998.77
998.773
998.776
998.779
998.783
998.786
998.789
998.792
998.794
998.796
998.796
997.607
998.347
998.839
998.813
998.753
998.748
998.755
998.757
998.758
998.759
998.761
998.763
998.765
998.767
998.768
998.77
998.77
998.769
998.767
998.763
997.535
998.364
998.844
998.799
998.741
998.739
998.745
998.746
998.746
998.747
998.748
998.749
998.75
998.75
998.75
998.75
998.747
998.744
998.739
998.73
998.944
998.973
999.006
999.045
999.089
999.139
999.196
999.258
999.327
999.494
998.941
998.969
999.001
999.039
999.082
999.13
999.185
999.245
999.31
999.477
998.931
998.958
998.989
999.025
999.065
999.111
999.162
999.218
999.279
999.44
998.914
998.939
998.968
999.001
999.039
999.081
999.127
999.177
999.232
999.385
998.891
998.912
998.939
998.969
999.003
999.04
999.08
999.124
999.171
999.313
998.861
998.879
998.903
998.93
998.959
998.99
999.023
999.059
999.097
999.225
998.827
998.841
998.863
998.885
998.908
998.933
998.959
998.985
999.013
999.125
998.79
998.8
998.818
998.836
998.854
998.872
998.889
998.906
998.924
999.015
998.75
998.757
998.771
998.784
998.796
998.807
998.817
998.825
998.832
998.901
998.708
998.714
998.724
998.732
998.738
998.743
998.744
998.741
998.734
998.78
998.674
998.681
998.686
998.687
998.684
998.675
998.658
998.634
998.607
998.641
998.635
998.639
998.638
998.632
998.622
998.604
998.577
998.541
998.504
998.518
998.594
998.594
998.586
998.575
998.557
998.532
998.497
998.455
998.41
998.402
998.552
998.546
998.533
998.516
998.492
998.46
998.418
998.369
998.318
998.29
998.507
998.497
998.48
998.457
998.428
998.39
998.342
998.287
998.232
998.186
998.463
998.448
998.427
998.4
998.366
998.323
998.27
998.211
998.153
998.092
998.42
998.401
998.376
998.346
998.308
998.261
998.206
998.144
998.084
998.009
998.378
998.357
998.329
998.295
998.255
998.206
998.149
998.087
998.025
997.939
998.34
998.316
998.286
998.251
998.208
998.158
998.101
998.039
997.977
997.881
998.305
998.279
998.248
998.212
998.169
998.119
998.062
998.001
997.938
997.833
998.669
998.63
998.59
998.549
998.508
998.466
998.427
998.389
998.354
998.323
998.656
998.619
998.581
998.543
998.505
998.467
998.431
998.397
998.365
998.335
998.641
998.605
998.57
998.536
998.501
998.467
998.434
998.403
998.373
998.346
998.626
998.593
998.561
998.529
998.498
998.467
998.437
998.408
998.381
998.356
998.614
998.583
998.553
998.524
998.495
998.467
998.439
998.413
998.388
998.365
998.603
998.574
998.546
998.52
998.493
998.467
998.442
998.417
998.394
998.372
998.593
998.566
998.54
998.516
998.491
998.467
998.444
998.421
998.4
998.379
998.584
998.559
998.535
998.512
998.489
998.467
998.445
998.425
998.405
998.385
998.575
998.552
998.53
998.509
998.488
998.467
998.447
998.428
998.409
998.391
998.568
998.547
998.526
998.506
998.487
998.467
998.449
998.43
998.413
998.396
998.561
998.542
998.522
998.504
998.486
998.468
998.45
998.433
998.416
998.4
998.555
998.537
998.519
998.502
998.485
998.468
998.451
998.435
998.419
998.404
998.55
998.533
998.516
998.5
998.484
998.468
998.452
998.437
998.422
998.408
998.545
998.529
998.513
998.498
998.483
998.468
998.453
998.439
998.425
998.411
998.541
998.525
998.511
998.496
998.482
998.468
998.454
998.44
998.427
998.414
998.537
998.522
998.508
998.495
998.481
998.468
998.455
998.442
998.429
998.417
998.533
998.519
998.506
998.493
998.481
998.468
998.455
998.443
998.431
998.419
998.529
998.517
998.504
998.492
998.48
998.468
998.456
998.444
998.433
998.421
998.526
998.514
998.503
998.491
998.479
998.468
998.457
998.445
998.434
998.423
998.523
998.512
998.501
998.49
998.479
998.468
998.457
998.446
998.436
998.425
998.521
998.51
998.499
998.489
998.478
998.468
998.457
998.447
998.437
998.427
998.518
998.508
998.498
998.488
998.478
998.468
998.458
998.448
998.438
998.429
998.516
998.506
998.497
998.487
998.477
998.468
998.458
998.449
998.439
998.43
998.514
998.504
998.495
998.486
998.477
998.468
998.458
998.449
998.44
998.431
998.512
998.503
998.494
998.485
998.476
998.467
998.459
998.45
998.441
998.432
998.51
998.501
998.493
998.484
998.476
998.467
998.459
998.45
998.442
998.434
998.508
998.5
998.492
998.484
998.475
998.467
998.459
998.451
998.443
998.435
998.507
998.499
998.491
998.483
998.475
998.467
998.459
998.451
998.443
998.435
998.505
998.497
998.49
998.482
998.475
998.467
998.459
998.451
998.444
998.436
998.504
998.496
998.489
998.482
998.474
998.467
998.459
998.452
998.444
998.437
998.502
998.495
998.488
998.481
998.474
998.467
998.459
998.452
998.445
998.438
998.501
998.494
998.487
998.481
998.474
998.466
998.459
998.452
998.445
998.438
998.5
998.493
998.487
998.48
998.473
998.466
998.459
998.453
998.446
998.439
998.499
998.493
998.486
998.48
998.473
998.466
998.459
998.453
998.446
998.439
998.498
998.492
998.485
998.479
998.473
998.466
998.46
998.453
998.446
998.44
998.497
998.491
998.485
998.479
998.472
998.466
998.46
998.453
998.447
998.44
998.496
998.49
998.484
998.478
998.472
998.466
998.46
998.453
998.447
998.441
998.495
998.49
998.484
998.478
998.472
998.466
998.46
998.453
998.447
998.441
998.495
998.489
998.483
998.478
998.472
998.466
998.46
998.453
998.447
998.441
998.494
998.489
998.483
998.477
998.471
998.465
998.46
998.454
998.447
998.441
998.494
998.488
998.483
998.477
998.471
998.465
998.459
998.454
998.448
998.442
998.493
998.488
998.482
998.477
998.471
998.465
998.459
998.454
998.448
998.442
998.493
998.487
998.482
998.476
998.471
998.465
998.459
998.454
998.448
998.442
998.492
998.487
998.482
998.476
998.471
998.465
998.459
998.454
998.448
998.442
998.492
998.487
998.481
998.476
998.471
998.465
998.459
998.454
998.448
998.442
998.492
998.487
998.481
998.476
998.47
998.465
998.459
998.454
998.448
998.442
998.491
998.486
998.481
998.476
998.47
998.465
998.459
998.454
998.448
998.443
998.491
998.486
998.481
998.476
998.47
998.465
998.459
998.454
998.448
998.443
998.491
998.486
998.481
998.476
998.47
998.465
998.459
998.454
998.448
998.443
998.491
998.486
998.481
998.476
998.47
998.465
998.459
998.454
998.448
998.443
997.392
998.431
998.861
998.776
998.726
998.73
998.735
998.734
998.733
998.733
998.732
998.732
998.731
998.729
998.726
998.723
998.718
998.71
998.7
998.683
997.325
998.451
998.859
998.761
998.717
998.723
998.727
998.725
998.724
998.723
998.722
998.721
998.719
998.716
998.712
998.708
998.701
998.693
998.682
998.666
997.294
998.447
998.851
998.75
998.709
998.716
998.719
998.717
998.715
998.714
998.712
998.71
998.708
998.704
998.7
998.695
998.688
998.679
998.668
998.653
997.272
998.439
998.844
998.741
998.701
998.708
998.711
998.708
998.706
998.705
998.703
998.7
998.697
998.693
998.688
998.682
998.675
998.666
998.654
998.64
997.253
998.43
998.838
998.733
998.693
998.7
998.702
998.7
998.698
998.696
998.693
998.69
998.686
998.682
998.677
998.67
998.662
998.653
998.642
998.628
997.236
998.422
998.831
998.725
998.685
998.692
998.694
998.692
998.689
998.687
998.684
998.68
998.676
998.672
998.666
998.659
998.651
998.642
998.631
998.617
997.22
998.413
998.825
998.718
998.677
998.684
998.686
998.684
998.681
998.678
998.675
998.671
998.667
998.662
998.656
998.649
998.641
998.631
998.62
998.607
997.204
998.405
998.818
998.71
998.669
998.677
998.679
998.676
998.673
998.67
998.666
998.662
998.658
998.652
998.646
998.639
998.631
998.621
998.611
998.598
997.189
998.396
998.812
998.703
998.662
998.669
998.671
998.668
998.665
998.662
998.658
998.654
998.649
998.644
998.637
998.63
998.622
998.612
998.602
998.59
997.173
998.388
998.805
998.696
998.655
998.662
998.664
998.66
998.657
998.654
998.65
998.646
998.641
998.635
998.629
998.622
998.613
998.604
998.594
998.582
997.159
998.38
998.799
998.69
998.648
998.655
998.657
998.653
998.65
998.646
998.643
998.638
998.633
998.627
998.621
998.614
998.606
998.597
998.587
998.575
997.144
998.372
998.793
998.683
998.641
998.648
998.65
998.646
998.643
998.639
998.635
998.631
998.626
998.62
998.614
998.606
998.598
998.59
998.58
998.569
997.13
998.364
998.788
998.677
998.634
998.642
998.643
998.639
998.636
998.632
998.628
998.624
998.619
998.613
998.607
998.6
998.592
998.583
998.574
998.563
997.116
998.356
998.782
998.67
998.628
998.635
998.637
998.633
998.629
998.626
998.622
998.617
998.612
998.606
998.6
998.593
998.585
998.577
998.568
998.558
997.103
998.349
998.776
998.664
998.621
998.629
998.63
998.627
998.623
998.619
998.615
998.611
998.606
998.6
998.594
998.587
998.58
998.571
998.563
998.553
997.09
998.342
998.771
998.659
998.615
998.623
998.624
998.621
998.617
998.613
998.609
998.605
998.6
998.594
998.588
998.581
998.574
998.566
998.558
998.549
997.078
998.335
998.766
998.653
998.61
998.617
998.619
998.615
998.611
998.608
998.604
998.599
998.594
998.589
998.583
998.576
998.569
998.561
998.553
998.545
997.066
998.329
998.761
998.648
998.604
998.612
998.613
998.609
998.606
998.602
998.598
998.594
998.589
998.583
998.578
998.571
998.564
998.557
998.549
998.541
997.055
998.322
998.757
998.642
998.599
998.606
998.608
998.604
998.601
998.597
998.593
998.589
998.584
998.579
998.573
998.567
998.56
998.553
998.545
998.537
997.043
998.316
998.752
998.637
998.594
998.601
998.603
998.599
998.596
998.592
998.588
998.584
998.579
998.574
998.568
998.562
998.556
998.549
998.542
998.534
997.033
998.31
998.748
998.633
998.589
998.597
998.598
998.594
998.591
998.587
998.584
998.579
998.575
998.57
998.564
998.558
998.552
998.545
998.538
998.531
997.023
998.305
998.744
998.628
998.584
998.592
998.594
998.59
998.586
998.583
998.579
998.575
998.57
998.565
998.56
998.554
998.548
998.542
998.535
998.528
997.013
998.3
998.74
998.624
998.58
998.588
998.589
998.586
998.582
998.579
998.575
998.571
998.566
998.562
998.556
998.551
998.545
998.539
998.532
998.525
997.004
998.294
998.736
998.62
998.575
998.583
998.585
998.581
998.578
998.575
998.571
998.567
998.563
998.558
998.553
998.547
998.542
998.536
998.529
998.523
996.995
998.29
998.732
998.616
998.571
998.579
998.581
998.577
998.574
998.571
998.567
998.563
998.559
998.554
998.55
998.544
998.539
998.533
998.527
998.52
996.987
998.285
998.729
998.612
998.567
998.576
998.577
998.574
998.57
998.567
998.564
998.56
998.556
998.551
998.546
998.541
998.536
998.53
998.524
998.518
996.979
998.281
998.726
998.608
998.564
998.572
998.574
998.57
998.567
998.564
998.56
998.557
998.553
998.548
998.543
998.539
998.533
998.528
998.522
998.516
996.971
998.276
998.722
998.605
998.56
998.569
998.57
998.567
998.564
998.561
998.557
998.554
998.55
998.545
998.541
998.536
998.531
998.525
998.52
998.514
996.964
998.273
998.72
998.602
998.557
998.565
998.567
998.564
998.561
998.558
998.554
998.551
998.547
998.543
998.538
998.533
998.529
998.523
998.518
998.512
996.957
998.269
998.717
998.599
998.554
998.562
998.564
998.561
998.558
998.555
998.551
998.548
998.544
998.54
998.536
998.531
998.526
998.521
998.516
998.511
996.951
998.265
998.714
998.596
998.551
998.559
998.561
998.558
998.555
998.552
998.549
998.545
998.542
998.538
998.533
998.529
998.524
998.519
998.514
998.509
996.945
998.262
998.712
998.593
998.548
998.557
998.559
998.555
998.552
998.55
998.546
998.543
998.539
998.535
998.531
998.527
998.522
998.518
998.513
998.508
996.939
998.259
998.709
998.591
998.546
998.554
998.556
998.553
998.55
998.547
998.544
998.541
998.537
998.533
998.529
998.525
998.521
998.516
998.511
998.506
996.934
998.256
998.707
998.588
998.543
998.552
998.554
998.551
998.548
998.545
998.542
998.539
998.535
998.532
998.528
998.523
998.519
998.515
998.51
998.505
996.929
998.253
998.705
998.586
998.541
998.55
998.552
998.549
998.546
998.543
998.54
998.537
998.533
998.53
998.526
998.522
998.518
998.513
998.509
998.504
996.924
998.251
998.703
998.584
998.539
998.548
998.55
998.547
998.544
998.541
998.538
998.535
998.532
998.528
998.524
998.52
998.516
998.512
998.507
998.503
996.92
998.249
998.702
998.582
998.537
998.546
998.548
998.545
998.542
998.539
998.536
998.533
998.53
998.527
998.523
998.519
998.515
998.511
998.506
998.502
996.916
998.246
998.7
998.581
998.535
998.544
998.546
998.543
998.54
998.538
998.535
998.532
998.529
998.525
998.522
998.518
998.514
998.51
998.505
998.501
996.913
998.244
998.699
998.579
998.534
998.542
998.545
998.542
998.539
998.536
998.534
998.53
998.527
998.524
998.52
998.517
998.513
998.509
998.504
998.5
996.909
998.243
998.697
998.578
998.532
998.541
998.543
998.54
998.537
998.535
998.532
998.529
998.526
998.523
998.519
998.516
998.512
998.508
998.503
998.499
996.906
998.241
998.696
998.576
998.531
998.54
998.542
998.539
998.536
998.534
998.531
998.528
998.525
998.522
998.518
998.515
998.511
998.507
998.503
998.499
996.903
998.239
998.695
998.575
998.53
998.538
998.541
998.538
998.535
998.533
998.53
998.527
998.524
998.521
998.517
998.514
998.51
998.506
998.502
998.498
996.901
998.238
998.694
998.574
998.529
998.537
998.54
998.537
998.534
998.532
998.529
998.526
998.523
998.52
998.517
998.513
998.509
998.505
998.501
998.497
996.899
998.237
998.693
998.573
998.528
998.537
998.539
998.536
998.533
998.531
998.528
998.525
998.522
998.519
998.516
998.512
998.509
998.505
998.501
998.497
996.897
998.236
998.692
998.572
998.527
998.536
998.538
998.535
998.533
998.53
998.528
998.525
998.522
998.519
998.515
998.512
998.508
998.504
998.501
998.496
996.896
998.235
998.692
998.572
998.526
998.535
998.538
998.535
998.532
998.53
998.527
998.524
998.521
998.518
998.515
998.511
998.508
998.504
998.5
998.496
996.896
998.234
998.691
998.572
998.526
998.535
998.537
998.534
998.532
998.529
998.527
998.524
998.521
998.518
998.514
998.511
998.507
998.504
998.5
998.496
996.898
998.232
998.691
998.572
998.526
998.534
998.537
998.534
998.531
998.529
998.526
998.523
998.521
998.517
998.514
998.511
998.507
998.503
998.5
998.496
996.909
998.225
998.691
998.574
998.526
998.534
998.537
998.534
998.531
998.529
998.526
998.523
998.52
998.517
998.514
998.511
998.507
998.503
998.5
998.496
996.951
998.197
998.685
998.578
998.526
998.533
998.536
998.534
998.531
998.528
998.526
998.523
998.52
998.517
998.514
998.51
998.507
998.503
998.499
998.495
998.161
998.127
998.096
998.068
998.038
998.007
997.973
997.937
997.901
997.835
998.165
998.131
998.099
998.072
998.043
998.013
997.981
997.946
997.912
997.854
998.16
998.131
998.101
998.076
998.049
998.021
997.991
997.959
997.927
997.876
998.154
998.128
998.102
998.078
998.053
998.027
997.999
997.97
997.94
997.898
998.148
998.127
998.103
998.081
998.057
998.032
998.006
997.979
997.953
997.919
998.144
998.125
998.104
998.083
998.061
998.038
998.013
997.989
997.965
997.939
998.14
998.124
998.105
998.085
998.065
998.042
998.019
997.996
997.975
997.956
998.138
998.123
998.106
998.087
998.068
998.046
998.025
998.003
997.983
997.969
998.138
998.124
998.107
998.09
998.07
998.05
998.028
998.007
997.989
997.978
998.138
998.124
998.108
998.091
998.072
998.051
998.03
998.01
997.992
997.983
998.148
998.156
998.165
998.174
998.182
998.191
998.199
998.207
998.215
998.223
998.23
998.237
998.244
998.251
998.257
998.264
998.27
998.276
998.282
998.287
998.293
998.298
998.303
998.308
998.313
998.317
998.322
998.326
998.33
998.335
998.339
998.343
998.347
998.351
998.355
998.358
998.362
998.366
998.37
998.374
998.378
998.382
998.386
998.39
998.395
998.399
998.404
998.409
998.415
998.42
998.144
998.153
998.162
998.171
998.18
998.189
998.197
998.205
998.213
998.221
998.228
998.236
998.243
998.25
998.256
998.263
998.269
998.275
998.281
998.286
998.292
998.297
998.302
998.307
998.312
998.316
998.321
998.325
998.33
998.334
998.338
998.342
998.346
998.35
998.354
998.358
998.362
998.365
998.369
998.373
998.377
998.381
998.385
998.389
998.394
998.398
998.403
998.408
998.414
998.419
998.14
998.148
998.158
998.168
998.177
998.186
998.194
998.203
998.211
998.219
998.226
998.234
998.241
998.248
998.255
998.261
998.267
998.273
998.279
998.285
998.29
998.296
998.301
998.306
998.31
998.315
998.32
998.324
998.328
998.333
998.337
998.341
998.345
998.349
998.353
998.357
998.36
998.364
998.368
998.372
998.376
998.38
998.384
998.388
998.392
998.397
998.401
998.406
998.412
998.417
998.135
998.142
998.154
998.164
998.174
998.183
998.192
998.2
998.209
998.217
998.224
998.232
998.239
998.246
998.253
998.259
998.266
998.272
998.278
998.283
998.289
998.294
998.299
998.304
998.309
998.314
998.318
998.323
998.327
998.331
998.336
998.34
998.344
998.347
998.351
998.355
998.359
998.363
998.367
998.37
998.374
998.378
998.382
998.386
998.39
998.394
998.399
998.403
998.409
998.413
998.129
998.136
998.149
998.161
998.17
998.18
998.189
998.198
998.206
998.214
998.222
998.23
998.237
998.244
998.251
998.258
998.264
998.27
998.276
998.282
998.287
998.293
998.298
998.303
998.308
998.312
998.317
998.321
998.326
998.33
998.334
998.338
998.342
998.346
998.35
998.353
998.357
998.361
998.365
998.368
998.372
998.376
998.38
998.383
998.387
998.391
998.395
998.4
998.404
998.408
998.124
998.13
998.145
998.157
998.167
998.177
998.187
998.196
998.204
998.213
998.221
998.228
998.236
998.243
998.249
998.256
998.262
998.269
998.274
998.28
998.286
998.291
998.296
998.301
998.306
998.311
998.315
998.319
998.324
998.328
998.332
998.336
998.34
998.344
998.348
998.351
998.355
998.359
998.362
998.366
998.369
998.373
998.377
998.38
998.384
998.388
998.391
998.395
998.399
998.403
998.12
998.125
998.141
998.154
998.165
998.175
998.185
998.194
998.203
998.211
998.219
998.227
998.234
998.241
998.248
998.255
998.261
998.267
998.273
998.279
998.284
998.289
998.294
998.299
998.304
998.309
998.313
998.318
998.322
998.326
998.33
998.334
998.338
998.342
998.345
998.349
998.353
998.356
998.36
998.363
998.366
998.37
998.373
998.377
998.38
998.383
998.386
998.39
998.393
998.396
998.117
998.121
998.139
998.153
998.164
998.174
998.184
998.193
998.202
998.21
998.218
998.226
998.233
998.24
998.247
998.253
998.26
998.266
998.271
998.277
998.283
998.288
998.293
998.298
998.302
998.307
998.311
998.316
998.32
998.324
998.328
998.332
998.336
998.339
998.343
998.346
998.35
998.353
998.357
998.36
998.363
998.366
998.369
998.372
998.375
998.378
998.381
998.384
998.387
998.39
998.115
998.121
998.14
998.154
998.164
998.175
998.184
998.193
998.202
998.21
998.218
998.225
998.233
998.239
998.246
998.253
998.259
998.265
998.27
998.276
998.281
998.286
998.291
998.296
998.301
998.305
998.31
998.314
998.318
998.322
998.326
998.33
998.333
998.337
998.34
998.344
998.347
998.35
998.353
998.356
998.359
998.362
998.365
998.368
998.371
998.373
998.376
998.378
998.38
998.382
998.116
998.127
998.146
998.159
998.169
998.179
998.188
998.196
998.205
998.212
998.22
998.227
998.234
998.24
998.246
998.253
998.259
998.264
998.27
998.275
998.28
998.285
998.29
998.295
998.299
998.304
998.308
998.312
998.316
998.32
998.324
998.327
998.331
998.334
998.338
998.341
998.344
998.347
998.35
998.353
998.356
998.358
998.361
998.363
998.365
998.368
998.37
998.371
998.373
998.374
998.167
998.162
998.163
998.169
998.176
998.184
998.192
998.2
998.207
998.215
998.222
998.228
998.235
998.241
998.248
998.253
998.259
998.265
998.27
998.275
998.28
998.285
998.29
998.294
998.299
998.303
998.307
998.311
998.315
998.319
998.322
998.326
998.329
998.333
998.336
998.339
998.342
998.345
998.348
998.35
998.353
998.355
998.357
998.359
998.361
998.363
998.365
998.366
998.367
998.368
998.181
998.178
998.176
998.18
998.186
998.193
998.199
998.206
998.213
998.219
998.226
998.232
998.238
998.244
998.25
998.256
998.261
998.266
998.271
998.276
998.281
998.286
998.29
998.295
998.299
998.303
998.307
998.311
998.315
998.318
998.322
998.325
998.328
998.331
998.334
998.337
998.34
998.343
998.345
998.348
998.35
998.352
998.354
998.356
998.358
998.359
998.36
998.361
998.362
998.363
998.188
998.189
998.188
998.191
998.196
998.201
998.207
998.213
998.219
998.225
998.231
998.236
998.242
998.248
998.253
998.258
998.263
998.268
998.273
998.278
998.282
998.287
998.291
998.295
998.299
998.303
998.307
998.311
998.314
998.317
998.321
998.324
998.327
998.33
998.333
998.336
998.338
998.341
998.343
998.345
998.347
998.349
998.351
998.353
998.354
998.355
998.356
998.357
998.357
998.357
998.197
998.198
998.198
998.201
998.205
998.21
998.214
998.22
998.225
998.23
998.235
998.241
998.246
998.251
998.256
998.261
998.266
998.27
998.275
998.279
998.284
998.288
998.292
998.296
998.3
998.303
998.307
998.31
998.314
998.317
998.32
998.323
998.326
998.329
998.331
998.334
998.336
998.339
998.341
998.343
998.345
998.346
998.348
998.349
998.35
998.351
998.352
998.352
998.352
998.352
998.206
998.208
998.208
998.211
998.214
998.218
998.222
998.226
998.231
998.236
998.24
998.245
998.25
998.255
998.259
998.264
998.268
998.273
998.277
998.281
998.285
998.289
998.293
998.296
998.3
998.304
998.307
998.31
998.313
998.316
998.319
998.322
998.325
998.327
998.33
998.332
998.335
998.337
998.339
998.34
998.342
998.343
998.345
998.346
998.347
998.347
998.348
998.348
998.347
998.347
998.216
998.217
998.218
998.22
998.223
998.226
998.23
998.233
998.237
998.242
998.246
998.25
998.254
998.258
998.263
998.267
998.271
998.275
998.279
998.283
998.286
998.29
998.294
998.297
998.301
998.304
998.307
998.31
998.313
998.316
998.319
998.321
998.324
998.326
998.329
998.331
998.333
998.335
998.336
998.338
998.339
998.341
998.342
998.342
998.343
998.343
998.343
998.343
998.342
998.341
998.225
998.227
998.227
998.229
998.231
998.234
998.237
998.24
998.244
998.247
998.251
998.255
998.259
998.262
998.266
998.27
998.274
998.277
998.281
998.285
998.288
998.292
998.295
998.298
998.301
998.304
998.307
998.31
998.313
998.316
998.318
998.321
998.323
998.325
998.327
998.329
998.331
998.333
998.334
998.336
998.337
998.338
998.339
998.339
998.34
998.34
998.339
998.339
998.338
998.337
998.235
998.236
998.237
998.238
998.24
998.242
998.244
998.247
998.25
998.253
998.256
998.26
998.263
998.266
998.27
998.273
998.277
998.28
998.283
998.287
998.29
998.293
998.296
998.299
998.302
998.305
998.308
998.31
998.313
998.315
998.318
998.32
998.322
998.324
998.326
998.328
998.329
998.331
998.332
998.333
998.334
998.335
998.336
998.336
998.336
998.336
998.336
998.335
998.334
998.332
998.245
998.245
998.246
998.247
998.248
998.25
998.252
998.254
998.256
998.259
998.262
998.265
998.268
998.271
998.274
998.277
998.28
998.283
998.286
998.289
998.292
998.295
998.297
998.3
998.303
998.305
998.308
998.31
998.313
998.315
998.317
998.319
998.321
998.323
998.325
998.326
998.328
998.329
998.33
998.331
998.332
998.332
998.333
998.333
998.333
998.333
998.332
998.331
998.329
998.328
998.255
998.254
998.255
998.255
998.256
998.257
998.259
998.261
998.263
998.265
998.267
998.27
998.272
998.275
998.277
998.28
998.283
998.285
998.288
998.291
998.294
998.296
998.299
998.301
998.304
998.306
998.308
998.311
998.313
998.315
998.317
998.319
998.32
998.322
998.323
998.325
998.326
998.327
998.328
998.329
998.33
998.33
998.33
998.33
998.33
998.329
998.328
998.327
998.326
998.324
998.264
998.263
998.263
998.263
998.264
998.265
998.266
998.267
998.269
998.27
998.272
998.274
998.277
998.279
998.281
998.283
998.286
998.288
998.291
998.293
998.295
998.298
998.3
998.302
998.305
998.307
998.309
998.311
998.313
998.315
998.316
998.318
998.32
998.321
998.322
998.324
998.325
998.326
998.326
998.327
998.327
998.328
998.328
998.327
998.327
998.326
998.325
998.324
998.322
998.32
998.273
998.272
998.271
998.271
998.271
998.272
998.273
998.273
998.275
998.276
998.278
998.279
998.281
998.283
998.285
998.287
998.289
998.291
998.293
998.295
998.297
998.299
998.302
998.304
998.306
998.307
998.309
998.311
998.313
998.315
998.316
998.318
998.319
998.32
998.321
998.322
998.323
998.324
998.325
998.325
998.325
998.325
998.325
998.325
998.324
998.323
998.322
998.321
998.319
998.317
998.282
998.28
998.279
998.279
998.279
998.279
998.279
998.28
998.28
998.281
998.283
998.284
998.285
998.287
998.289
998.29
998.292
998.294
998.296
998.298
998.299
998.301
998.303
998.305
998.307
998.308
998.31
998.312
998.313
998.315
998.316
998.317
998.318
998.319
998.32
998.321
998.322
998.323
998.323
998.323
998.323
998.323
998.323
998.323
998.322
998.321
998.319
998.318
998.316
998.313
998.29
998.288
998.287
998.286
998.286
998.285
998.285
998.285
998.286
998.287
998.287
998.288
998.29
998.291
998.292
998.294
998.295
998.297
998.298
998.3
998.301
998.303
998.304
998.306
998.308
998.309
998.311
998.312
998.313
998.315
998.316
998.317
998.318
998.319
998.32
998.32
998.321
998.321
998.322
998.322
998.322
998.321
998.321
998.32
998.319
998.318
998.317
998.315
998.313
998.311
998.298
998.295
998.294
998.293
998.292
998.291
998.291
998.291
998.291
998.292
998.292
998.293
998.294
998.295
998.296
998.297
998.298
998.299
998.301
998.302
998.303
998.305
998.306
998.307
998.309
998.31
998.311
998.312
998.314
998.315
998.316
998.317
998.317
998.318
998.319
998.319
998.32
998.32
998.32
998.32
998.32
998.32
998.319
998.318
998.317
998.316
998.315
998.313
998.311
998.308
998.305
998.302
998.301
998.299
998.298
998.297
998.297
998.297
998.296
998.296
998.297
998.297
998.298
998.298
998.299
998.3
998.301
998.302
998.303
998.304
998.305
998.306
998.308
998.309
998.31
998.311
998.312
998.313
998.314
998.315
998.316
998.316
998.317
998.318
998.318
998.319
998.319
998.319
998.319
998.319
998.319
998.318
998.317
998.317
998.316
998.314
998.313
998.311
998.309
998.306
998.312
998.309
998.307
998.306
998.304
998.303
998.302
998.302
998.301
998.301
998.301
998.301
998.302
998.302
998.302
998.303
998.304
998.305
998.305
998.306
998.307
998.308
998.309
998.31
998.311
998.312
998.313
998.313
998.314
998.315
998.316
998.316
998.317
998.317
998.318
998.318
998.318
998.318
998.318
998.318
998.317
998.317
998.316
998.315
998.314
998.313
998.311
998.309
998.307
998.304
998.318
998.315
998.313
998.311
998.31
998.308
998.307
998.307
998.306
998.306
998.305
998.305
998.305
998.305
998.306
998.306
998.307
998.307
998.308
998.308
998.309
998.31
998.311
998.311
998.312
998.313
998.313
998.314
998.315
998.315
998.316
998.316
998.317
998.317
998.317
998.317
998.317
998.317
998.317
998.317
998.316
998.315
998.315
998.314
998.312
998.311
998.309
998.308
998.305
998.303
998.324
998.321
998.319
998.317
998.315
998.314
998.312
998.311
998.31
998.31
998.309
998.309
998.309
998.309
998.309
998.309
998.309
998.31
998.31
998.31
998.311
998.311
998.312
998.313
998.313
998.314
998.314
998.315
998.315
998.316
998.316
998.316
998.316
998.317
998.317
998.317
998.317
998.316
998.316
998.316
998.315
998.314
998.313
998.312
998.311
998.31
998.308
998.306
998.304
998.302
998.329
998.326
998.324
998.322
998.32
998.318
998.317
998.316
998.315
998.314
998.313
998.313
998.312
998.312
998.312
998.312
998.312
998.312
998.312
998.312
998.313
998.313
998.313
998.314
998.314
998.315
998.315
998.315
998.316
998.316
998.316
998.316
998.316
998.316
998.316
998.316
998.316
998.316
998.315
998.315
998.314
998.313
998.312
998.311
998.31
998.309
998.307
998.305
998.303
998.301
998.335
998.331
998.329
998.327
998.325
998.323
998.321
998.32
998.319
998.317
998.317
998.316
998.315
998.315
998.315
998.314
998.314
998.314
998.314
998.314
998.314
998.315
998.315
998.315
998.315
998.315
998.316
998.316
998.316
998.316
998.316
998.316
998.316
998.316
998.316
998.316
998.316
998.315
998.315
998.314
998.313
998.313
998.312
998.31
998.309
998.308
998.306
998.304
998.302
998.3
998.339
998.336
998.333
998.331
998.329
998.327
998.325
998.324
998.322
998.321
998.32
998.319
998.318
998.318
998.317
998.317
998.317
998.316
998.316
998.316
998.316
998.316
998.316
998.316
998.316
998.316
998.316
998.317
998.317
998.317
998.317
998.316
998.316
998.316
998.316
998.316
998.315
998.315
998.314
998.314
998.313
998.312
998.311
998.31
998.308
998.307
998.305
998.304
998.302
998.299
998.344
998.34
998.338
998.335
998.333
998.331
998.329
998.327
998.326
998.324
998.323
998.322
998.321
998.321
998.32
998.319
998.319
998.319
998.318
998.318
998.318
998.318
998.318
998.317
998.317
998.317
998.317
998.317
998.317
998.317
998.317
998.317
998.316
998.316
998.316
998.315
998.315
998.314
998.314
998.313
998.312
998.311
998.31
998.309
998.308
998.306
998.305
998.303
998.301
998.299
998.348
998.344
998.342
998.339
998.337
998.334
998.332
998.331
998.329
998.328
998.326
998.325
998.324
998.323
998.322
998.322
998.321
998.321
998.32
998.32
998.319
998.319
998.319
998.319
998.318
998.318
998.318
998.318
998.318
998.317
998.317
998.317
998.317
998.316
998.316
998.315
998.315
998.314
998.313
998.313
998.312
998.311
998.31
998.309
998.307
998.306
998.304
998.303
998.301
998.299
998.351
998.348
998.345
998.343
998.34
998.338
998.336
998.334
998.332
998.331
998.329
998.328