/*--------------------------------*- C++ -*----------------------------------*\
  =========                 |
  \\      /  F ield         | OpenFOAM: The Open Source CFD Toolbox
   \\    /   O peration     | Website:  https://openfoam.org
    \\  /    A nd           | Version:  6
     \\/     M anipulation  |
\*---------------------------------------------------------------------------*/
FoamFile
{
    version     2.0;
    format      ascii;
    class       surfaceScalarField;
    location    "0.65";
    object      phi;
}
// * * * * * * * * * * * * * * * * * * * * * * * * * * * * * * * * * * * * * //

dimensions      [0 3 -1 0 0 0 0];

internalField   nonuniform List<scalar> 
11030
(
0.000115563
6.65141e-08
0.000115678
-1.15559e-07
0.000115641
3.78295e-08
0.000115438
2.02195e-07
0.000115206
2.32006e-07
0.000114946
2.60675e-07
0.000114619
3.26705e-07
0.000114211
4.08431e-07
0.000113714
4.96523e-07
0.00011312
5.93898e-07
0.000112416
7.03623e-07
0.000111589
8.27289e-07
0.000110623
9.66583e-07
0.000109499
1.12375e-06
0.000108198
1.30135e-06
0.000106696
1.50192e-06
0.000104968
1.72726e-06
0.000102992
1.97677e-06
0.000100747
2.24445e-06
2.50932e-06
9.82378e-05
0.000115892
-1.99994e-07
0.00011578
-3.56213e-09
0.00011554
2.76888e-07
0.000115311
4.31204e-07
0.000115056
4.87276e-07
0.000114742
5.75304e-07
0.000114357
7.11656e-07
0.000113894
8.70976e-07
0.000113344
1.04643e-06
0.000112695
1.24277e-06
0.000111935
1.46421e-06
0.000111048
1.71368e-06
0.00011002
1.9947e-06
0.000108832
2.31172e-06
0.000107464
2.66974e-06
0.000105892
3.07368e-06
0.000104092
3.52694e-06
0.000102041
4.02823e-06
9.972e-05
4.56545e-06
5.10109e-06
9.71282e-05
0.000115695
-2.9493e-07
0.000115644
4.73377e-08
0.000115436
4.84758e-07
0.000115167
7.00159e-07
0.000114863
7.91216e-07
0.000114503
9.35662e-07
0.00011407
1.1446e-06
0.000113556
1.38476e-06
0.000112953
1.64984e-06
0.000112249
1.94687e-06
0.000111432
2.28149e-06
0.000110487
2.65795e-06
0.000109401
3.08149e-06
0.000108154
3.55865e-06
0.000106727
4.09677e-06
0.000105097
4.70301e-06
0.000103242
5.38237e-06
0.000101137
6.13302e-06
9.87651e-05
6.93739e-06
7.74437e-06
9.61218e-05
0.000115598
-3.2033e-07
0.000115501
1.44476e-07
0.000115272
7.12944e-07
0.000114976
9.96392e-07
0.000114636
1.13136e-06
0.000114235
1.33664e-06
0.000113758
1.62197e-06
0.000113196
1.94659e-06
0.000112542
2.30413e-06
0.000111785
2.70376e-06
0.000110914
3.15255e-06
0.000109915
3.65601e-06
0.000108776
4.22094e-06
0.000107479
4.85586e-06
0.000106005
5.57018e-06
0.000104335
6.37318e-06
0.000102446
7.27132e-06
0.000100317
8.2623e-06
9.79308e-05
9.32358e-06
1.03929e-05
9.52823e-05
0.0001155
-2.77005e-07
0.000115345
2.99643e-07
0.000115084
9.73757e-07
0.000114759
1.32163e-06
0.000114385
1.50553e-06
0.000113945
1.77673e-06
0.000113424
2.1428e-06
0.000112815
2.55556e-06
0.000112111
3.00825e-06
0.000111303
3.51189e-06
0.000110381
4.0748e-06
0.000109333
4.70357e-06
0.000108147
5.40644e-06
0.00010681
6.19358e-06
0.000105304
7.07627e-06
0.000103611
8.06548e-06
0.000101714
9.16896e-06
9.95922e-05
1.03839e-05
9.72327e-05
1.1683e-05
1.29955e-05
9.46302e-05
0.000115391
-1.54095e-07
0.000115174
5.16573e-07
0.000114883
1.2645e-06
0.000114531
1.67359e-06
0.000114123
1.91371e-06
0.000113642
2.25759e-06
0.000113075
2.70951e-06
0.000112417
3.21416e-06
0.000111661
3.76419e-06
0.000110801
4.37217e-06
0.000109828
5.04753e-06
0.000108734
5.79779e-06
0.000107508
6.63239e-06
0.000106138
7.56288e-06
0.000104613
8.60195e-06
0.000102916
9.76189e-06
0.000101034
1.10513e-05
9.8951e-05
1.24668e-05
9.66569e-05
1.39771e-05
1.55056e-05
9.41468e-05
0.00011525
7.76353e-08
0.000114974
7.92785e-07
0.000114677
1.56195e-06
0.000114307
2.04328e-06
0.000113862
2.35915e-06
0.000113334
2.78553e-06
0.000112714
3.32879e-06
0.000112
3.92885e-06
0.000111187
4.57731e-06
0.000110271
5.28823e-06
0.000109246
6.07217e-06
0.000108106
6.93756e-06
0.000106844
7.89477e-06
0.00010545
8.95639e-06
0.000103916
1.0136e-05
0.000102231
1.14466e-05
0.000100385
1.28974e-05
9.83676e-05
1.44846e-05
9.61709e-05
1.61738e-05
1.78868e-05
9.37896e-05
0.000115029
4.97554e-07
0.000114714
1.10748e-06
0.000114475
1.80122e-06
0.000114101
2.41722e-06
0.000113606
2.85489e-06
0.000113017
3.37378e-06
0.000112334
4.01179e-06
0.000111554
4.70947e-06
0.000110675
5.4555e-06
0.000109698
6.26541e-06
0.000108619
7.15148e-06
0.000107434
8.123e-06
0.000106137
9.19104e-06
0.000104725
1.03686e-05
0.000103191
1.16696e-05
0.000101531
1.31072e-05
9.97377e-05
1.46905e-05
9.78064e-05
1.64159e-05
9.57319e-05
1.82484e-05
2.01164e-05
9.35022e-05
0.000114534
1.38137e-06
0.000114361
1.28092e-06
0.000114324
1.83777e-06
0.000113927
2.8143e-06
0.000113344
3.43831e-06
0.000112676
4.04186e-06
0.000111915
4.77212e-06
0.000111057
5.56762e-06
0.000110105
6.40757e-06
0.000109061
7.30989e-06
0.000107923
8.28952e-06
0.000106689
9.35653e-06
0.000105358
1.0522e-05
0.000103928
1.17988e-05
0.000102397
1.32001e-05
0.000100766
1.47381e-05
9.90356e-05
1.64214e-05
9.72041e-05
1.82474e-05
9.52704e-05
2.0182e-05
2.21568e-05
9.323e-05
0.000113636
3.16475e-06
0.000114208
7.08995e-07
0.000114336
1.70896e-06
0.000113771
3.3798e-06
0.000113056
4.15314e-06
0.000112291
4.80706e-06
0.000111439
5.62366e-06
0.000110495
6.51147e-06
0.000109465
7.4376e-06
0.000108351
8.4239e-06
0.000107153
9.48789e-06
0.00010587
1.06398e-05
0.000104502
1.189e-05
0.000103051
1.32501e-05
0.000101519
1.47314e-05
9.99141e-05
1.63432e-05
9.82443e-05
1.80912e-05
9.65195e-05
1.99722e-05
9.47299e-05
2.19716e-05
9.28661e-05
2.40207e-05
8.78892e-05
1.03485e-05
7.73984e-05
1.04909e-05
6.67518e-05
1.06466e-05
5.59455e-05
1.08062e-05
4.49961e-05
1.09494e-05
3.39788e-05
1.10173e-05
2.31091e-05
1.08697e-05
1.2901e-05
1.0208e-05
4.43051e-06
8.47051e-06
4.43051e-06
8.68717e-05
2.0605e-05
7.64663e-05
2.08962e-05
6.59075e-05
2.12055e-05
5.51941e-05
2.15196e-05
4.43465e-05
2.1797e-05
3.3445e-05
2.19188e-05
2.27075e-05
2.16073e-05
1.26455e-05
2.027e-05
4.36976e-06
1.67463e-05
8.80027e-06
8.59574e-05
3.07694e-05
7.56387e-05
3.1215e-05
6.51666e-05
3.16776e-05
5.45425e-05
3.21437e-05
4.37892e-05
3.25503e-05
3.29905e-05
3.27175e-05
2.23689e-05
3.22289e-05
1.24395e-05
3.01994e-05
4.28684e-06
2.48989e-05
1.30871e-05
8.51955e-05
4.08562e-05
7.49514e-05
4.14591e-05
6.45548e-05
4.20741e-05
5.40078e-05
4.26907e-05
4.33339e-05
4.32243e-05
3.26194e-05
4.3432e-05
2.20908e-05
4.27575e-05
1.22659e-05
4.00243e-05
4.21817e-06
3.29467e-05
1.73053e-05
8.46038e-05
5.08826e-05
7.4417e-05
5.16459e-05
6.40793e-05
5.24118e-05
5.35916e-05
5.31784e-05
4.29769e-05
5.3839e-05
3.23237e-05
5.40852e-05
2.18631e-05
5.32181e-05
1.21182e-05
4.97691e-05
4.15735e-06
4.09076e-05
2.14626e-05
8.41643e-05
6.08651e-05
7.40175e-05
6.17927e-05
6.37209e-05
6.27084e-05
5.32728e-05
6.36265e-05
4.26952e-05
6.44165e-05
3.20797e-05
6.47007e-05
2.16639e-05
6.36339e-05
1.19798e-05
5.94533e-05
4.09566e-06
4.87917e-05
2.55583e-05
8.38336e-05
7.08212e-05
7.37092e-05
7.19171e-05
6.3436e-05
7.29816e-05
5.3007e-05
7.40555e-05
4.24445e-05
7.4979e-05
3.1845e-05
7.53002e-05
2.14565e-05
7.40223e-05
1.1824e-05
6.90858e-05
4.01978e-06
5.65959e-05
2.95781e-05
8.35461e-05
8.07773e-05
7.34231e-05
8.20401e-05
6.31547e-05
8.32501e-05
5.27239e-05
8.44863e-05
4.21563e-05
8.55466e-05
3.15573e-05
8.58992e-05
2.11899e-05
8.43897e-05
1.16157e-05
7.86601e-05
3.91229e-06
6.42993e-05
3.34903e-05
8.31971e-05
9.08102e-05
7.30474e-05
9.21897e-05
6.27623e-05
9.35352e-05
5.23115e-05
9.49371e-05
4.17299e-05
9.61281e-05
3.11331e-05
9.6496e-05
2.08005e-05
9.47223e-05
1.13104e-05
8.81502e-05
3.74859e-06
7.18612e-05
3.72389e-05
8.25409e-05
0.000101135
7.23729e-05
0.000102358
6.20547e-05
0.000103853
5.15901e-05
0.000105402
4.10198e-05
0.000106698
3.04626e-05
0.000107053
2.02088e-05
0.000104976
1.08458e-05
9.75132e-05
3.47828e-06
7.92287e-05
4.07172e-05
3.13904e-05
0.000106569
-3.68242e-05
2.59891e-05
0.000107759
2.0679e-05
0.000109164
1.55108e-05
0.00011057
1.06337e-05
0.000111576
6.30463e-06
0.000111382
2.87521e-06
0.000108405
6.99167e-07
9.96892e-05
-9.71203e-08
8.0025e-05
4.06201e-05
2.53895e-05
0.000111455
-3.02749e-05
2.05033e-05
0.000112645
1.57191e-05
0.000113948
1.11479e-05
0.000115141
6.95576e-06
0.000115768
3.39775e-06
0.00011494
7.95769e-07
0.000111007
-5.5661e-07
0.000101042
-6.2004e-07
8.00884e-05
4.00001e-05
1.94247e-05
0.000115821
-2.37907e-05
1.50694e-05
0.000117001
1.08487e-05
0.000118168
6.90022e-06
0.00011909
3.41144e-06
0.000119257
6.3719e-07
0.000117714
-1.13002e-06
0.000112775
-1.6623e-06
0.000101574
-1.02594e-06
7.94521e-05
3.89741e-05
1.35521e-05
0.000119671
-1.74028e-05
9.74676e-06
0.000120806
6.11406e-06
0.000121801
2.81123e-06
0.000122392
4.16263e-08
0.000122026
-1.94314e-06
0.000119699
-2.88302e-06
0.000113715
-2.62264e-06
0.000101313
-1.34788e-06
7.81773e-05
3.76262e-05
7.81374e-06
0.000123004
-1.11465e-05
4.56908e-06
0.000124051
1.54357e-06
0.000124827
-1.09309e-06
0.000125029
-3.12953e-06
0.000124063
-4.32395e-06
0.000120894
-4.45516e-06
0.000113846
-3.44599e-06
0.000100304
-1.60153e-06
7.63328e-05
3.60247e-05
2.23829e-06
0.000125816
-5.04994e-06
-4.37362e-07
0.000126726
-2.84075e-06
0.00012723
-4.79506e-06
0.000126983
-6.08858e-06
0.000125356
-6.49712e-06
0.000121302
-5.84578e-06
0.000113194
-4.13954e-06
9.85981e-05
-1.79557e-06
7.39889e-05
3.42291e-05
-3.15496e-06
0.000128102
8.69209e-07
-5.25345e-06
0.000128825
-7.02216e-06
0.000128999
-8.28164e-06
0.000128243
-8.82704e-06
0.000125902
-8.45979e-06
0.000120935
-7.05826e-06
0.000111793
-4.71158e-06
9.62514e-05
-1.93819e-06
7.12155e-05
3.2291e-05
-8.35532e-06
0.000129855
6.60172e-06
-9.86716e-06
0.000130337
-1.0989e-05
0.00013012
-1.15432e-05
0.000128797
-1.13388e-05
0.000125697
-1.02106e-05
0.000119807
-8.09683e-06
0.000109679
-5.1704e-06
9.3325e-05
-2.03674e-06
6.80818e-05
3.02542e-05
-1.33574e-05
0.000131068
1.21441e-05
-1.42697e-05
0.000131249
-1.47297e-05
0.00013058
-1.45668e-05
0.000128634
-1.36119e-05
0.000124742
-1.17424e-05
0.000117937
-8.96184e-06
0.000106899
-5.52348e-06
8.98866e-05
-2.09896e-06
6.46573e-05
2.81553e-05
-1.81516e-05
1.75011e-05
0.000131719
-1.84356e-05
0.000131533
-1.82058e-05
0.000130351
-1.73083e-05
0.000127737
-1.56056e-05
0.000123039
-1.30276e-05
0.000115359
-9.64621e-06
0.000103517
-5.78199e-06
8.60224e-05
-2.14188e-06
6.10172e-05
2.60134e-05
8.16513e-05
-3.74366e-05
-8.1039e-05
8.24836e-05
-3.11072e-05
8.35087e-05
-2.48158e-05
8.46706e-05
-1.85647e-05
8.59272e-05
-1.24032e-05
8.72305e-05
-6.35322e-06
8.85295e-05
-4.29757e-07
8.97738e-05
5.35742e-06
9.09161e-05
1.10018e-05
1.65153e-05
9.19019e-05
8.23643e-05
-3.78737e-05
-8.19271e-05
8.29956e-05
-3.17386e-05
8.38198e-05
-2.564e-05
8.47936e-05
-1.95384e-05
8.58787e-05
-1.34884e-05
8.70343e-05
-7.50878e-06
8.82168e-05
-1.61226e-06
8.93832e-05
4.19106e-06
9.0492e-05
9.89296e-06
1.55093e-05
9.1498e-05
8.29732e-05
-3.81111e-05
-8.27358e-05
8.34217e-05
-3.2187e-05
8.40592e-05
-2.62775e-05
8.4854e-05
-2.03332e-05
8.5773e-05
-1.44073e-05
8.67815e-05
-8.51733e-06
8.78436e-05
-2.67435e-06
8.89233e-05
3.11141e-06
8.99854e-05
8.83082e-06
1.45008e-05
9.09938e-05
8.3503e-05
-3.82021e-05
-8.3412e-05
8.37922e-05
-3.24762e-05
8.42612e-05
-2.67465e-05
8.48882e-05
-2.09603e-05
8.56473e-05
-1.51663e-05
8.65107e-05
-9.38076e-06
8.74497e-05
-3.61333e-06
8.84351e-05
2.12596e-06
8.94381e-05
7.82786e-06
1.3509e-05
9.043e-05
8.39458e-05
-3.81767e-05
-8.39713e-05
8.41008e-05
-3.26312e-05
8.44227e-05
-2.70685e-05
8.48988e-05
-2.14363e-05
8.551e-05
-1.57776e-05
8.62358e-05
-1.01065e-05
8.7054e-05
-4.4316e-06
8.79422e-05
1.23785e-06
8.8877e-05
6.89303e-06
1.25498e-05
8.98361e-05
8.43011e-05
-3.80489e-05
-8.44288e-05
8.43403e-05
-3.26705e-05
8.45353e-05
-2.72634e-05
8.4879e-05
-2.17801e-05
8.53584e-05
-1.6257e-05
8.59586e-05
-1.07067e-05
8.66635e-05
-5.13645e-06
8.7456e-05
4.45335e-07
8.83183e-05
6.03065e-06
1.16347e-05
8.92335e-05
8.45759e-05
-3.78291e-05
-8.47957e-05
8.45134e-05
-3.26079e-05
8.45982e-05
-2.73483e-05
8.4827e-05
-2.20088e-05
8.51907e-05
-1.66207e-05
8.56789e-05
-1.11949e-05
8.62801e-05
-5.73762e-06
8.6982e-05
-2.5658e-07
8.77714e-05
5.24122e-06
1.07704e-05
8.86357e-05
8.47793e-05
-3.75262e-05
-8.50822e-05
8.46266e-05
-3.24552e-05
8.46155e-05
-2.73371e-05
8.47443e-05
-2.21377e-05
8.5007e-05
-1.68834e-05
8.53963e-05
-1.15842e-05
8.59042e-05
-6.24556e-06
8.65222e-05
-8.74611e-07
8.72409e-05
4.52257e-06
9.96005e-06
8.80512e-05
8.49203e-05
-3.71482e-05
-8.52983e-05
8.46873e-05
-3.22223e-05
8.45919e-05
-2.72417e-05
8.46336e-05
-2.21793e-05
8.48081e-05
-1.7058e-05
8.51104e-05
-1.18865e-05
8.55353e-05
-6.67041e-06
8.60769e-05
-1.41617e-06
8.67286e-05
3.87083e-06
9.2041e-06
8.74845e-05
8.50074e-05
-3.67025e-05
-8.54532e-05
8.47028e-05
-3.19176e-05
8.4533e-05
-2.7072e-05
8.44983e-05
-2.21445e-05
8.45956e-05
-1.71553e-05
8.48216e-05
-1.21125e-05
8.51727e-05
-7.02154e-06
8.56452e-05
-1.88865e-06
8.62347e-05
3.28131e-06
8.50118e-06
8.69376e-05
8.50485e-05
-3.61957e-05
-8.55553e-05
8.46799e-05
-3.1549e-05
8.44443e-05
-2.68363e-05
8.43421e-05
-2.20424e-05
8.43716e-05
-1.71848e-05
8.45303e-05
-1.22712e-05
8.48161e-05
-7.30728e-06
8.52265e-05
-2.29904e-06
8.57588e-05
2.74897e-06
7.84883e-06
8.64112e-05
8.50508e-05
-3.5634e-05
-8.56124e-05
8.46249e-05
-3.11231e-05
8.43307e-05
-2.65421e-05
8.41689e-05
-2.18807e-05
8.41384e-05
-1.71543e-05
8.42377e-05
-1.23705e-05
8.44653e-05
-7.53491e-06
8.482e-05
-2.65367e-06
8.53001e-05
2.26888e-06
7.24399e-06
8.59049e-05
8.50204e-05
-3.50231e-05
-8.56313e-05
8.45433e-05
-3.06459e-05
8.41968e-05
-2.61957e-05
8.39821e-05
-2.1666e-05
8.38984e-05
-1.70706e-05
8.39449e-05
-1.24169e-05
8.41207e-05
-7.71073e-06
8.44252e-05
-2.9582e-06
8.48577e-05
1.8364e-06
6.68338e-06
8.54183e-05
8.4963e-05
-3.4368e-05
-8.56181e-05
8.444e-05
-3.01229e-05
8.40469e-05
-2.58026e-05
8.37849e-05
-2.1404e-05
8.36538e-05
-1.69395e-05
8.36531e-05
-1.24162e-05
8.37825e-05
-7.84017e-06
8.40419e-05
-3.21759e-06
8.44311e-05
1.44726e-06
6.16375e-06
8.49507e-05
8.48835e-05
-3.36732e-05
-8.55782e-05
8.43194e-05
-2.95588e-05
8.38845e-05
-2.53678e-05
8.35803e-05
-2.10997e-05
8.34067e-05
-1.67659e-05
8.33637e-05
-1.23732e-05
8.34515e-05
-7.92792e-06
8.367e-05
-3.43618e-06
8.40197e-05
1.09765e-06
5.68198e-06
8.45014e-05
8.47861e-05
-3.29429e-05
-8.55164e-05
8.41851e-05
-2.89578e-05
8.37128e-05
-2.48955e-05
8.33706e-05
-2.07575e-05
8.31589e-05
-1.65541e-05
8.30779e-05
-1.22922e-05
8.3128e-05
-7.97803e-06
8.33096e-05
-3.61777e-06
8.36231e-05
7.84149e-07
5.23518e-06
8.40699e-05
8.46744e-05
-3.21807e-05
-8.54366e-05
8.40404e-05
-2.83238e-05
8.35345e-05
-2.43896e-05
8.31581e-05
-2.03812e-05
8.2912e-05
-1.6308e-05
8.27967e-05
-1.21769e-05
8.28127e-05
-7.99404e-06
8.29606e-05
-3.76569e-06
8.32411e-05
5.03703e-07
4.82068e-06
8.36556e-05
8.45519e-05
-3.13899e-05
-8.53427e-05
8.38881e-05
-2.76601e-05
8.33519e-05
-2.38534e-05
8.29448e-05
-1.9974e-05
8.26676e-05
-1.60309e-05
8.25212e-05
-1.20305e-05
8.25062e-05
-7.97905e-06
8.26234e-05
-3.88286e-06
8.28735e-05
2.53607e-07
4.43606e-06
8.32581e-05
8.4421e-05
-3.05733e-05
-8.52376e-05
8.37306e-05
-2.69697e-05
8.31671e-05
-2.32898e-05
8.27321e-05
-1.95391e-05
8.24268e-05
-1.57256e-05
8.22521e-05
-1.18558e-05
8.22088e-05
-7.9358e-06
8.22979e-05
-3.97189e-06
8.252e-05
3.14382e-08
4.07911e-06
8.2877e-05
8.42844e-05
-2.97337e-05
-8.5124e-05
8.35699e-05
-2.62551e-05
8.29817e-05
-2.27016e-05
8.25215e-05
-1.90789e-05
8.21907e-05
-1.53947e-05
8.19902e-05
-1.16553e-05
8.19211e-05
-7.8667e-06
8.19843e-05
-4.03508e-06
8.21807e-05
-1.64976e-07
3.74783e-06
8.2512e-05
8.41439e-05
-2.88732e-05
-8.50044e-05
8.34077e-05
-2.55189e-05
8.27971e-05
-2.20911e-05
8.23142e-05
-1.85959e-05
8.19601e-05
-1.50407e-05
8.17361e-05
-1.14313e-05
8.16433e-05
-7.77392e-06
8.16827e-05
-4.0745e-06
8.18554e-05
-3.37592e-07
3.44039e-06
8.21628e-05
8.40014e-05
-2.79939e-05
-8.48806e-05
8.32455e-05
-2.47631e-05
8.26148e-05
-2.14603e-05
8.2111e-05
-1.80922e-05
8.17357e-05
-1.46654e-05
8.14902e-05
-1.11858e-05
8.13757e-05
-7.6594e-06
8.13932e-05
-4.09202e-06
8.15438e-05
-4.88184e-07
3.1551e-06
8.18291e-05
8.38582e-05
-2.70977e-05
-8.47544e-05
8.30846e-05
-2.39895e-05
8.24355e-05
-2.08112e-05
8.19129e-05
-1.75695e-05
8.15182e-05
-1.42708e-05
8.1253e-05
-1.09206e-05
8.11185e-05
-7.52488e-06
8.11158e-05
-4.08932e-06
8.1246e-05
-6.18364e-07
2.89044e-06
8.15106e-05
8.37157e-05
-2.61863e-05
-8.46272e-05
8.29261e-05
-2.31998e-05
8.22603e-05
-2.01454e-05
8.17204e-05
-1.70296e-05
8.1308e-05
-1.38584e-05
8.10247e-05
-1.06373e-05
8.08718e-05
-7.37195e-06
8.08504e-05
-4.06793e-06
8.09617e-05
-7.29608e-07
2.64499e-06
8.12071e-05
8.3575e-05
-2.52609e-05
-8.45003e-05
8.27707e-05
-2.23955e-05
8.20897e-05
-1.94644e-05
8.15341e-05
-1.6474e-05
8.11055e-05
-1.34299e-05
8.08056e-05
-1.03374e-05
8.06357e-05
-7.20204e-06
8.0597e-05
-4.02923e-06
8.06907e-05
-8.23268e-07
2.41743e-06
8.09182e-05
8.34368e-05
-2.4323e-05
-8.43747e-05
8.26193e-05
-2.1578e-05
8.19245e-05
-1.87696e-05
8.13545e-05
-1.59039e-05
8.0911e-05
-1.29864e-05
8.05958e-05
-1.00222e-05
8.04102e-05
-7.01645e-06
8.03555e-05
-3.97453e-06
8.04329e-05
-9.00591e-07
2.20657e-06
8.06437e-05
8.3302e-05
-2.33737e-05
-8.42513e-05
8.24725e-05
-2.07485e-05
8.1765e-05
-1.80622e-05
8.11818e-05
-1.53207e-05
8.07247e-05
-1.25294e-05
8.03954e-05
-9.69287e-06
8.01954e-05
-6.81639e-06
8.01258e-05
-3.90498e-06
8.0188e-05
-9.62728e-07
2.01125e-06
8.03833e-05
8.31711e-05
-2.24142e-05
-8.41307e-05
8.23306e-05
-1.9908e-05
8.16117e-05
-1.73432e-05
8.10164e-05
-1.47255e-05
8.05468e-05
-1.20597e-05
8.02045e-05
-9.35059e-06
7.99911e-05
-6.60294e-06
7.99078e-05
-3.82168e-06
7.99558e-05
-1.01075e-06
1.83044e-06
8.01366e-05
8.30447e-05
-2.14452e-05
-8.40137e-05
8.21942e-05
-1.90575e-05
8.14647e-05
-1.66137e-05
8.08584e-05
-1.41192e-05
8.03773e-05
-1.15786e-05
8.0023e-05
-8.99634e-06
7.97972e-05
-6.37712e-06
7.97012e-05
-3.72562e-06
7.97361e-05
-1.04565e-06
1.66315e-06
7.99033e-05
8.29232e-05
-2.04677e-05
-8.39007e-05
8.20636e-05
-1.81979e-05
8.13245e-05
-1.58745e-05
8.0708e-05
-1.35028e-05
8.02163e-05
-1.10868e-05
7.9851e-05
-8.63106e-06
7.96137e-05
-6.13986e-06
7.95059e-05
-3.61773e-06
7.95286e-05
-1.06834e-06
1.50845e-06
7.96833e-05
8.28069e-05
-1.94825e-05
-8.37921e-05
8.1939e-05
-1.733e-05
8.1191e-05
-1.51266e-05
8.05653e-05
-1.2877e-05
8.00638e-05
-1.05854e-05
7.96883e-05
-8.2556e-06
7.94405e-05
-5.89203e-06
7.93217e-05
-3.49888e-06
7.9333e-05
-1.0797e-06
1.36548e-06
7.9476e-05
8.2696e-05
-1.84902e-05
-8.36882e-05
8.18205e-05
-1.64545e-05
8.10645e-05
-1.43706e-05
8.04303e-05
-1.22428e-05
7.99198e-05
-1.00749e-05
7.9535e-05
-7.87077e-06
7.92774e-05
-5.63441e-06
7.91484e-05
-3.36988e-06
7.91492e-05
-1.08054e-06
1.23341e-06
7.92813e-05
8.25907e-05
-1.74916e-05
-8.35893e-05
8.17084e-05
-1.55722e-05
8.09451e-05
-1.36073e-05
8.0303e-05
-1.16007e-05
7.97843e-05
-9.55621e-06
7.93908e-05
-7.47729e-06
7.91242e-05
-5.36777e-06
7.89858e-05
-3.23147e-06
7.89769e-05
-1.07162e-06
1.1115e-06
7.90988e-05
8.24913e-05
-1.64872e-05
-8.34957e-05
8.16027e-05
-1.46837e-05
8.08327e-05
-1.28372e-05
8.01835e-05
-1.09515e-05
7.96572e-05
-9.02996e-06
7.92558e-05
-7.07585e-06
7.89808e-05
-5.09278e-06
7.88337e-05
-3.08436e-06
7.88157e-05
-1.05364e-06
9.9899e-07
7.89282e-05
8.23977e-05
-1.54775e-05
-8.34074e-05
8.15035e-05
-1.37895e-05
8.07274e-05
-1.20611e-05
8.00717e-05
-1.02958e-05
7.95385e-05
-8.49678e-06
7.91297e-05
-6.66709e-06
7.88471e-05
-4.81012e-06
7.86919e-05
-2.92922e-06
7.86656e-05
-1.02729e-06
8.95212e-07
7.87693e-05
8.23102e-05
-1.44632e-05
-8.33246e-05
8.14109e-05
-1.28901e-05
8.06292e-05
-1.12794e-05
7.99675e-05
-9.63415e-06
7.9428e-05
-7.95724e-06
7.90125e-05
-6.25162e-06
7.87228e-05
-4.52038e-06
7.85602e-05
-2.76667e-06
7.85261e-05
-9.93205e-07
7.99506e-07
7.86218e-05
8.22288e-05
-1.34447e-05
-8.32473e-05
8.13248e-05
-1.19861e-05
8.05381e-05
-1.04927e-05
7.9871e-05
-8.96704e-06
7.93256e-05
-7.41192e-06
7.8904e-05
-5.82999e-06
7.86078e-05
-4.22414e-06
7.84384e-05
-2.5973e-06
7.83972e-05
-9.51984e-07
7.11254e-07
7.84854e-05
8.21534e-05
-1.24223e-05
-8.31757e-05
8.12452e-05
-1.1078e-05
8.0454e-05
-9.70139e-06
7.97819e-05
-8.29502e-06
7.92313e-05
-6.86131e-06
7.88041e-05
-5.40274e-06
7.85019e-05
-3.92196e-06
7.83263e-05
-2.42167e-06
7.82785e-05
-9.04203e-07
6.29864e-07
7.83599e-05
8.20841e-05
-1.13967e-05
-8.31097e-05
8.11722e-05
-1.01661e-05
8.03769e-05
-8.90603e-06
7.97004e-05
-7.61854e-06
7.9145e-05
-6.3059e-06
7.87126e-05
-4.97036e-06
7.8405e-05
-3.61433e-06
7.82236e-05
-2.2403e-06
7.81698e-05
-8.50407e-07
5.5477e-07
7.82449e-05
8.20209e-05
-1.03681e-05
-8.30495e-05
8.11057e-05
-9.251e-06
8.03067e-05
-8.10701e-06
7.96262e-05
-6.93807e-06
7.90665e-05
-5.74616e-06
7.86295e-05
-4.53333e-06
7.83169e-05
-3.30176e-06
7.81303e-05
-2.0537e-06
7.8071e-05
-7.91118e-07
4.85431e-07
7.81404e-05
8.19637e-05
-9.33693e-06
-8.29949e-05
8.10457e-05
-8.33295e-06
8.02434e-05
-7.30475e-06
7.95594e-05
-6.25402e-06
7.89958e-05
-5.18254e-06
7.85545e-05
-4.09211e-06
7.82375e-05
-2.98472e-06
7.80462e-05
-1.86237e-06
7.79819e-05
-7.26838e-07
4.21327e-07
7.8046e-05
8.19126e-05
-8.30359e-06
-8.2946e-05
8.09921e-05
-7.4124e-06
8.0187e-05
-6.49965e-06
7.94998e-05
-5.56681e-06
7.89327e-05
-4.61544e-06
7.84877e-05
-3.64713e-06
7.81666e-05
-2.66364e-06
7.7971e-05
-1.66675e-06
7.79022e-05
-6.58049e-07
3.61955e-07
7.79616e-05
8.18675e-05
-7.26842e-06
-8.29027e-05
8.09448e-05
-6.48969e-06
8.01373e-05
-5.69208e-06
7.94473e-05
-4.87683e-06
7.88771e-05
-4.04527e-06
7.84288e-05
-3.19881e-06
7.81041e-05
-2.33897e-06
7.79047e-05
-1.4673e-06
7.78318e-05
-5.85217e-07
3.06827e-07
7.7887e-05
8.18283e-05
-6.23177e-06
-8.2865e-05
8.09038e-05
-5.56521e-06
8.00942e-05
-4.88243e-06
7.94018e-05
-4.18446e-06
7.8829e-05
-3.47243e-06
7.83777e-05
-2.74755e-06
7.80499e-05
-2.01111e-06
7.7847e-05
-1.26446e-06
7.77706e-05
-5.08795e-07
2.55463e-07
7.7822e-05
8.1795e-05
-5.194e-06
-8.28328e-05
8.08691e-05
-4.6393e-06
8.00577e-05
-4.07104e-06
7.93633e-05
-3.49006e-06
7.87882e-05
-2.89729e-06
7.83344e-05
-2.29374e-06
7.80037e-05
-1.68049e-06
7.77979e-05
-1.05865e-06
7.77184e-05
-4.29232e-07
2.07398e-07
7.77664e-05
8.17675e-05
-4.15544e-06
-8.28061e-05
8.08405e-05
-3.7123e-06
8.00278e-05
-3.25826e-06
7.93317e-05
-2.79399e-06
7.87546e-05
-2.32023e-06
7.82987e-05
-1.83777e-06
7.79657e-05
-1.34749e-06
7.77573e-05
-8.50291e-07
7.7675e-05
-3.4697e-07
1.62162e-07
7.77203e-05
8.17458e-05
-3.11644e-06
-8.27848e-05
8.0818e-05
-2.78455e-06
8.00042e-05
-2.44445e-06
7.93068e-05
-2.0966e-06
7.87282e-05
-1.7416e-06
7.82705e-05
-1.38002e-06
7.79355e-05
-1.01253e-06
7.7725e-05
-6.39806e-07
7.76405e-05
-2.62455e-07
1.19286e-07
7.76834e-05
8.17297e-05
-2.07733e-06
-8.27689e-05
8.08016e-05
-1.85639e-06
7.99871e-05
-1.62992e-06
7.92887e-05
-1.39824e-06
7.87089e-05
-1.16176e-06
7.82497e-05
-9.2087e-07
7.79132e-05
-6.76006e-07
7.7701e-05
-4.27627e-07
7.76147e-05
-1.76136e-07
7.82959e-08
7.76557e-05
8.17193e-05
-1.03842e-06
-8.27582e-05
8.0791e-05
-9.2811e-07
7.99761e-05
-8.14994e-07
7.92771e-05
-6.99255e-07
7.86965e-05
-5.81096e-07
7.82363e-05
-4.60719e-07
7.78986e-05
-3.38344e-07
7.76852e-05
-2.14199e-07
7.75976e-05
-8.84864e-08
3.87029e-08
7.76372e-05
8.17144e-05
-8.27528e-05
8.07863e-05
7.99713e-05
7.9272e-05
7.8691e-05
7.82302e-05
7.78919e-05
7.76777e-05
7.75892e-05
7.76279e-05
8.05885e-05
2.15962e-06
7.999e-05
1.30753e-06
7.96874e-05
2.01153e-06
7.9749e-05
3.31818e-06
7.97402e-05
4.16197e-06
7.96504e-05
4.89688e-06
7.95479e-05
5.72614e-06
7.94445e-05
6.61486e-06
7.93375e-05
7.54467e-06
7.92309e-05
8.53052e-06
7.91324e-05
9.58637e-06
7.90506e-05
1.07216e-05
7.89954e-05
1.19452e-05
7.89789e-05
1.32666e-05
7.9016e-05
1.46943e-05
7.91248e-05
1.62344e-05
7.93278e-05
1.78882e-05
7.96564e-05
1.96436e-05
8.01758e-05
2.14521e-05
2.31576e-05
8.03971e-05
1.39591e-06
8.00625e-05
1.64213e-06
7.98126e-05
2.26146e-06
7.98266e-05
3.3042e-06
7.98207e-05
4.16785e-06
7.97624e-05
4.95519e-06
7.96953e-05
5.79324e-06
7.96303e-05
6.67988e-06
7.95672e-05
7.60772e-06
7.95107e-05
8.58706e-06
7.94682e-05
9.62886e-06
7.94484e-05
1.07413e-05
7.94616e-05
1.19321e-05
7.952e-05
1.32082e-05
7.96386e-05
1.45756e-05
7.98358e-05
1.60372e-05
8.01341e-05
1.75899e-05
8.05619e-05
1.92158e-05
8.11544e-05
2.08597e-05
2.23848e-05
8.00099e-05
1.04442e-06
7.99567e-05
1.69537e-06
7.98438e-05
2.37433e-06
7.98498e-05
3.29821e-06
7.98589e-05
4.15875e-06
7.98387e-05
4.97546e-06
7.98109e-05
5.82105e-06
7.97858e-05
6.70494e-06
7.97665e-05
7.62704e-06
7.97581e-05
8.59542e-06
7.97682e-05
9.61882e-06
7.98053e-05
1.07042e-05
7.98796e-05
1.18577e-05
8.00033e-05
1.30846e-05
8.01905e-05
1.43884e-05
8.04582e-05
1.57695e-05
8.08261e-05
1.7222e-05
8.13157e-05
1.87262e-05
8.19471e-05
2.02283e-05
2.1596e-05
7.98494e-05
8.7104e-07
7.98594e-05
1.68539e-06
7.98266e-05
2.40718e-06
7.98499e-05
3.27493e-06
7.98787e-05
4.12986e-06
7.98924e-05
4.96179e-06
7.9902e-05
5.81144e-06
7.99158e-05
6.69112e-06
7.99383e-05
7.60455e-06
7.99752e-05
8.55857e-06
8.00337e-05
9.56029e-06
8.01224e-05
1.06155e-05
8.02511e-05
1.17291e-05
8.04311e-05
1.29046e-05
8.06757e-05
1.41438e-05
8.09999e-05
1.54452e-05
8.14205e-05
1.68014e-05
8.19544e-05
1.81924e-05
8.26157e-05
1.9567e-05
2.07998e-05
7.97748e-05
7.87227e-07
7.98027e-05
1.65754e-06
7.9811e-05
2.39886e-06
7.98483e-05
3.23764e-06
7.98937e-05
4.08448e-06
7.99348e-05
4.92063e-06
7.99769e-05
5.76939e-06
8.00258e-05
6.64218e-06
8.00864e-05
7.544e-06
8.01642e-05
8.48071e-06
8.02664e-05
9.45813e-06
8.04009e-05
1.0481e-05
8.0577e-05
1.1553e-05
8.08052e-05
1.26764e-05
8.10974e-05
1.38515e-05
8.14669e-05
1.50758e-05
8.19276e-05
1.63407e-05
8.24931e-05
1.76268e-05
8.31736e-05
1.88865e-05
2.00021e-05
7.97464e-05
7.45435e-07
7.97776e-05
1.62636e-06
7.98054e-05
2.37104e-06
7.98525e-05
3.19052e-06
7.99108e-05
4.02621e-06
7.99731e-05
4.85826e-06
8.00417e-05
5.70081e-06
8.01207e-05
6.5632e-06
8.02144e-05
7.45027e-06
8.03282e-05
8.36692e-06
8.04685e-05
9.31784e-06
8.06428e-05
1.03068e-05
8.08594e-05
1.13363e-05
8.1128e-05
1.24077e-05
8.14592e-05
1.35204e-05
8.18643e-05
1.46707e-05
8.2355e-05
1.585e-05
8.29423e-05
1.70396e-05
8.36336e-05
1.81951e-05
1.92069e-05
7.97414e-05
7.21504e-07
7.97723e-05
1.59553e-06
7.98096e-05
2.33377e-06
7.98639e-05
3.13619e-06
7.99323e-05
3.95785e-06
8.00108e-05
4.77971e-06
8.01005e-05
5.61111e-06
8.02043e-05
6.45937e-06
8.0326e-05
7.32856e-06
8.04704e-05
8.22259e-06
8.06431e-05
9.14512e-06
8.08509e-05
1.00989e-05
8.11015e-05
1.10858e-05
8.14033e-05
1.2106e-05
8.17655e-05
1.31582e-05
8.21979e-05
1.42382e-05
8.27104e-05
1.53376e-05
8.33116e-05
1.64384e-05
8.40072e-05
1.74995e-05
1.84184e-05
7.97472e-05
7.04344e-07
7.97782e-05
1.56457e-06
7.9821e-05
2.29094e-06
7.98811e-05
3.07608e-06
7.99577e-05
3.8813e-06
8.00488e-05
4.68856e-06
8.01552e-05
5.5047e-06
8.02792e-05
6.33541e-06
8.04239e-05
7.18385e-06
8.05935e-05
8.05298e-06
8.07931e-05
8.94552e-06
8.10287e-05
9.86339e-06
8.13069e-05
1.08076e-05
8.16352e-05
1.17777e-05
8.20215e-05
1.27718e-05
8.24742e-05
1.37855e-05
8.30014e-05
1.48104e-05
8.36102e-05
1.58296e-05
8.43047e-05
1.6805e-05
1.76408e-05
7.97576e-05
6.89098e-07
7.97898e-05
1.53236e-06
7.98369e-05
2.24391e-06
7.9902e-05
3.01092e-06
7.99855e-05
3.79781e-06
8.00867e-05
4.58733e-06
8.02065e-05
5.38499e-06
8.03466e-05
6.1953e-06
8.05099e-05
7.02056e-06
8.07e-05
7.86289e-06
8.09213e-05
8.72417e-06
8.11791e-05
9.6056e-06
8.14792e-05
1.05075e-05
8.1828e-05
1.14289e-05
8.22324e-05
1.23675e-05
8.26992e-05
1.33187e-05
8.32353e-05
1.42743e-05
8.38463e-05
1.52186e-05
8.45352e-05
1.61162e-05
1.68777e-05
7.97698e-05
6.73745e-07
7.9804e-05
1.49819e-06
7.98547e-05
2.19318e-06
7.99245e-05
2.94115e-06
8.00141e-05
3.70822e-06
8.01236e-05
4.47779e-06
8.0254e-05
5.25458e-06
8.0407e-05
6.04228e-06
8.05851e-05
6.84245e-06
8.07915e-05
7.65652e-06
8.103e-05
8.48566e-06
8.13052e-05
9.33045e-06
8.1622e-05
1.01906e-05
8.1986e-05
1.10648e-05
8.2403e-05
1.19505e-05
8.28788e-05
1.28429e-05
8.34189e-05
1.37342e-05
8.40277e-05
1.46097e-05
8.47072e-05
1.54367e-05
1.61318e-05
7.97824e-05
6.5755e-07
7.98189e-05
1.46177e-06
7.9873e-05
2.13906e-06
7.9947e-05
2.86713e-06
8.0042e-05
3.61324e-06
8.01585e-05
4.36131e-06
8.02975e-05
5.11553e-06
8.04608e-05
5.879e-06
8.06505e-05
6.65271e-06
8.08696e-05
7.4375e-06
8.11212e-05
8.23398e-06
8.14095e-05
9.04223e-06
8.17386e-05
9.86151e-06
8.21132e-05
1.06902e-05
8.25383e-05
1.15254e-05
8.30185e-05
1.23626e-05
8.35584e-05
1.31943e-05
8.41615e-05
1.40067e-05
8.48287e-05
1.47695e-05
1.54051e-05
7.9795e-05
6.40348e-07
7.98336e-05
1.42316e-06
7.98908e-05
2.08189e-06
7.99686e-05
2.78928e-06
8.00683e-05
3.51356e-06
8.01906e-05
4.23902e-06
8.03366e-05
4.96952e-06
8.05079e-05
5.70765e-06
8.07067e-05
6.45398e-06
8.09353e-05
7.20889e-06
8.11967e-05
7.97255e-06
8.14943e-05
8.7446e-06
8.18318e-05
9.524e-06
8.22132e-05
1.03089e-05
8.26423e-05
1.10962e-05
8.31233e-05
1.18816e-05
8.36596e-05
1.2658e-05
8.42539e-05
1.34124e-05
8.49066e-05
1.41169e-05
1.46993e-05
7.98071e-05
6.22207e-07
7.98477e-05
1.38261e-06
7.99075e-05
2.02205e-06
7.99887e-05
2.70812e-06
8.00924e-05
3.40987e-06
8.02194e-05
4.11198e-06
8.0371e-05
4.81798e-06
8.05486e-05
5.53007e-06
8.0754e-05
6.2485e-06
8.09896e-05
6.97328e-06
8.1258e-05
7.70423e-06
8.15619e-05
8.44069e-06
8.19045e-05
9.18136e-06
8.22892e-05
9.92419e-06
8.27192e-05
1.06662e-05
8.31978e-05
1.1403e-05
8.37278e-05
1.2128e-05
8.4311e-05
1.28292e-05
8.49473e-05
1.34806e-05
1.40153e-05
7.98188e-05
6.03279e-07
7.9861e-05
1.34042e-06
7.99231e-05
1.95998e-06
8.0007e-05
2.62419e-06
8.0114e-05
3.3029e-06
8.02448e-05
3.98115e-06
8.04006e-05
4.66216e-06
8.05829e-05
5.34785e-06
8.07932e-05
6.03817e-06
8.10336e-05
6.73285e-06
8.13064e-05
7.43147e-06
8.1614e-05
8.13311e-06
8.1959e-05
8.83632e-06
8.23442e-05
9.53894e-06
8.27725e-05
1.0238e-05
8.32462e-05
1.09293e-05
8.37676e-05
1.16066e-05
8.43379e-05
1.22588e-05
8.49566e-05
1.28619e-05
1.33537e-05
7.983e-05
5.83734e-07
7.98735e-05
1.29694e-06
7.99373e-05
1.89616e-06
8.00235e-05
2.53806e-06
8.0133e-05
3.19336e-06
8.02667e-05
3.84743e-06
8.04257e-05
4.50321e-06
8.06112e-05
5.16236e-06
8.08247e-05
5.8246e-06
8.10681e-05
6.48946e-06
8.13433e-05
7.15631e-06
8.16523e-05
7.82406e-06
8.19975e-05
8.49114e-06
8.23811e-05
9.15537e-06
8.28052e-05
9.81383e-06
8.32721e-05
1.04625e-05
8.37831e-05
1.10955e-05
8.43393e-05
1.17027e-05
8.49395e-05
1.22617e-05
1.2715e-05
7.98407e-05
5.63737e-07
7.98851e-05
1.2525e-06
7.99503e-05