/*--------------------------------*- C++ -*----------------------------------*\
  =========                 |
  \\      /  F ield         | OpenFOAM: The Open Source CFD Toolbox
   \\    /   O peration     | Website:  https://openfoam.org
    \\  /    A nd           | Version:  6
     \\/     M anipulation  |
\*---------------------------------------------------------------------------*/
FoamFile
{
    version     2.0;
    format      ascii;
    class       volVectorField;
    location    "0.65";
    object      U;
}
// * * * * * * * * * * * * * * * * * * * * * * * * * * * * * * * * * * * * * //

dimensions      [0 1 -1 0 0 0 0];

internalField   nonuniform List<vector> 
5600
(
(1.44432 0.00277917 3.74812e-19)
(1.11335 0.00339422 -6.43762e-18)
(0.98709 0.00341764 6.42306e-18)
(1.00227 0.0030914 0)
(1.01603 0.00310299 0)
(1.01236 0.00351173 0)
(1.00552 0.00403187 -1.1983e-17)
(0.999655 0.00456678 1.19558e-17)
(0.99368 0.00515324 0)
(0.986851 0.00582028 0)
(0.979092 0.00657485 0)
(0.97038 0.0074241 0)
(0.960609 0.0083812 0)
(0.949641 0.00946261 -2.35913e-17)
(0.937321 0.0106863 2.35384e-17)
(0.923478 0.0120699 -4.69727e-17)
(0.90792 0.0136264 4.6868e-17)
(0.890449 0.0153526 0)
(0.870868 0.0172061 -3.64542e-19)
(0.849028 0.0190499 0)
(1.45026 0.00516302 -3.69587e-19)
(1.11044 0.00765703 6.34853e-18)
(0.986688 0.00859104 -6.33652e-18)
(1.00373 0.00878839 0)
(1.01708 0.00935831 0)
(1.01299 0.0105 2.4464e-17)
(1.00613 0.011894 1.77129e-22)
(1.00033 0.0134185 -7.38384e-19)
(0.99441 0.0151199 1.20121e-22)
(0.987644 0.0170444 -2.35428e-17)
(0.979975 0.0192155 0)
(0.971381 0.0216598 -4.76411e-17)
(0.961761 0.0244146 4.68194e-17)
(0.950979 0.0275254 0)
(0.938892 0.0310423 0)
(0.925337 0.0350145 0)
(0.910136 0.0394766 0)
(0.893098 0.0444157 -4.63829e-17)
(0.874027 0.0497092 4.66575e-17)
(0.852685 0.0550052 4.55181e-17)
(1.45783 0.00581752 0)
(1.10971 0.0119434 0)
(0.985786 0.0142956 0)
(1.00441 0.0145451 0)
(1.01804 0.0154845 2.34432e-17)
(1.0139 0.0173866 -2.414e-17)
(1.00716 0.019666 -1.46087e-18)
(1.00155 0.022159 -7.29358e-19)
(0.99582 0.0249533 2.33053e-17)
(0.989257 0.0281181 -2.18164e-17)
(0.981828 0.0316884 -1.45229e-18)
(0.973523 0.0357073 4.71305e-17)
(0.964249 0.0402346 -4.77851e-17)
(0.953888 0.0453426 1.44591e-18)
(0.942314 0.0511109 4.62019e-17)
(0.929385 0.0576174 -9.37101e-17)
(0.914939 0.0649163 -1.44016e-18)
(0.898803 0.0729856 4.59995e-17)
(0.88078 0.0816261 -1.4354e-18)
(0.860551 0.0902878 -7.17027e-19)
(1.46728 0.00721098 0)
(1.10979 0.0156642 -1.44583e-18)
(0.984634 0.0191109 0)
(1.00479 0.0197036 0)
(1.019 0.0211781 0)
(1.01503 0.0238862 0)
(1.00855 0.0270728 1.43938e-18)
(1.00328 0.0305469 2.44456e-17)
(0.997886 0.034433 -2.2985e-17)
(0.991684 0.0388225 -1.43517e-18)
(0.984665 0.0437628 2.86752e-18)
(0.976838 0.0493122 0)
(0.968129 0.0555515 -4.43599e-17)
(0.958445 0.0625775 4.43162e-17)
(0.947686 0.0704962 4.57014e-17)
(0.935741 0.0794114 -4.56563e-17)
(0.92248 0.0893958 9.26499e-17)
(0.907751 0.100422 -9.11344e-17)
(0.891375 0.112224 1.4226e-18)
(0.872982 0.124083 1.42179e-18)
(1.47847 0.00871266 -5.61316e-18)
(1.11001 0.0189522 7.08811e-18)
(0.983305 0.0232435 -1.13445e-17)
(1.00518 0.0242311 -1.13392e-17)
(1.02013 0.0263021 2.26697e-17)
(1.01642 0.0298352 2.26596e-17)
(1.01032 0.0339374 -2.26501e-17)
(1.00551 0.0383951 1.41505e-18)
(1.00058 0.0433609 1.41445e-18)
(0.994885 0.0489436 4.52438e-17)
(0.988433 0.0552005 -9.04495e-17)
(0.981264 0.0622031 1.41239e-18)
(0.97333 0.0700504 4.65985e-17)
(0.964568 0.0788595 1.41148e-18)
(0.954915 0.0887588 -4.37377e-17)
(0.944302 0.0998732 4.79495e-17)
(0.932638 0.112291 1.40967e-18)
(0.919806 0.12598 0)
(0.905663 0.140614 1.40847e-18)
(0.88982 0.155328 1.40826e-18)
(1.49124 0.0101537 5.49282e-18)
(1.11018 0.0218474 -5.54986e-18)
(0.981823 0.0267416 1.38888e-18)
(1.00574 0.0280637 0)
(1.02154 0.0307516 2.22299e-17)
(1.01816 0.0351303 -2.22345e-17)
(1.01251 0.0401553 1.38994e-18)
(1.00824 0.0455912 -4.72681e-17)
(1.00388 0.0516129 -2.78119e-18)
(0.998796 0.0583407 8.90111e-17)
(0.993041 0.0658381 -4.72965e-17)
(0.986683 0.0741875 -1.39136e-18)
(0.979706 0.0835018 -4.73155e-17)
(0.972083 0.0939145 -4.59332e-17)
(0.963795 0.10557 8.77065e-17)
(0.954821 0.118608 8.63315e-17)
(0.945119 0.133128 -9.05254e-17)
(0.934615 0.149092 8.77573e-17)
(0.923216 0.166123 -1.79726e-16)
(0.910539 0.183226 8.78034e-17)
(1.5054 0.0116048 0)
(1.11003 0.0242682 0)
(0.980145 0.0294234 -1.3579e-18)
(1.00656 0.0310618 2.17448e-17)
(1.02333 0.0344459 -2.1764e-17)
(1.02028 0.0397171 -1.3614e-18)
(1.01512 0.045677 -1.36262e-18)
(1.01144 0.0520781 1.36383e-18)
(1.00771 0.0591156 1.36503e-18)
(1.00331 0.066917 0)
(0.998349 0.0755505 4.51251e-17)
(0.992923 0.0851067 1.89274e-22)
(0.98705 0.0957094 -4.24645e-17)
(0.980745 0.107503 -8.63749e-17)
(0.974035 0.120641 1.75645e-16)
(0.966951 0.135272 -8.65254e-17)
(0.959506 0.151499 8.79758e-17)
(0.951675 0.169282 -8.6676e-17)
(0.943421 0.1882 -8.81285e-17)
(0.93439 0.207164 8.68303e-17)
(1.52072 0.0136004 0)
(1.10896 0.0259312 1.32271e-18)
(0.978144 0.0308336 -2.12076e-17)
(1.00782 0.0330947 2.25693e-17)
(1.0256 0.0373975 -2.12744e-17)
(1.02278 0.0436133 2.39722e-17)
(1.01808 0.05051 0)
(1.01502 0.0578483 1.33609e-18)
(1.01194 0.0658346 0)
(1.00827 0.0746044 -1.3404e-18)
(1.00416 0.0842323 4.29622e-17)
(0.999761 0.0948166 -4.30314e-17)
(0.995108 0.106488 -8.6202e-17)
(0.990256 0.119394 8.49917e-17)
(0.985283 0.133693 0)
(0.980272 0.149533 0)
(0.975297 0.167016 8.67597e-17)
(0.970381 0.186105 1.67324e-22)
(0.965556 0.206359 -8.70395e-17)
(0.960509 0.226664 8.85361e-17)
(1.53698 0.0185976 -4.45725e-18)
(1.10525 0.0253988 4.50713e-18)
(0.975863 0.0294962 0)
(1.00996 0.0340692 -1.94253e-18)
(1.02835 0.039866 -2.07683e-17)
(1.02547 0.0469947 -2.21189e-17)
(1.02122 0.0547929 8.34697e-17)
(1.01877 0.063041 -4.31419e-17)
(1.01635 0.0719018 -4.19347e-17)
(1.01344 0.0815244 4.33487e-17)
(1.01025 0.092001 -8.42719e-17)
(1.00693 0.103437 1.68949e-16)
(1.00358 0.115962 1.66579e-22)
(1.00027 0.129722 -8.48814e-17)
(0.997125 0.144864 0)
(0.99429 0.161527 8.52915e-17)
(0.991897 0.179809 -1.70995e-16)
(0.990033 0.199682 8.57043e-17)
(0.988836 0.22072 0)
(0.988076 0.241799 0)
(1.55444 0.0294893 -5.56755e-18)
(1.09392 0.0189374 4.38077e-18)
(0.974991 0.0233389 0)
(1.01476 0.0343036 2.08019e-17)
(1.03148 0.0424407 -2.02358e-17)
(1.02792 0.050168 -4.05995e-17)
(1.02431 0.0587198 -1.47847e-22)
(1.02255 0.0678419 8.17197e-17)
(1.02078 0.0775077 -8.1982e-17)
(1.01866 0.0878817 4.11228e-17)
(1.01643 0.0990969 -8.25108e-17)
(1.01427 0.111266 8.27772e-17)
(1.01225 0.124511 -8.30451e-17)
(1.01051 0.138964 8.33143e-17)
(1.0092 0.154751 8.3585e-17)
(1.00853 0.171983 -8.38571e-17)
(1.00868 0.190736 0)
(1.00986 0.211004 -8.44051e-17)
(1.01233 0.232511 8.46816e-17)
(1.01594 0.254172 8.49355e-17)
(0.821624 0.0206537 0)
(0.784416 0.0228563 0)
(0.739736 0.0253813 4.2439e-17)
(0.685542 0.0282769 -2.30358e-17)
(0.619111 0.0315449 -2.51899e-17)
(0.536989 0.035025 4.16725e-17)
(0.435521 0.038154 -1.54771e-17)
(0.311232 0.0395901 3.49265e-17)
(0.162993 0.0366459 0)
(0.0455522 0.0207531 0)
(0.825997 0.0599295 -1.84146e-17)
(0.78957 0.0666351 -5.93533e-17)
(0.745662 0.0743507 -2.13467e-17)
(0.692379 0.0832209 2.31733e-17)
(0.626998 0.0932559 2.53362e-17)
(0.546022 0.103963 -5.58745e-17)
(0.445668 0.113646 4.6677e-17)
(0.32221 0.11819 -8.77312e-17)
(0.173494 0.109103 -1.00469e-17)
(0.0517613 0.0619928 6.42316e-17)
(0.835334 0.0983828 1.84906e-17)
(0.800352 0.109428 -1.98664e-17)
(0.757934 0.122165 4.28724e-17)
(0.706418 0.136805 4.65465e-17)
(0.643073 0.153363 -5.09002e-17)
(0.564314 0.171009 -2.80664e-17)
(0.4661 0.186936 3.12704e-17)
(0.344062 0.194297 -5.2906e-17)
(0.194366 0.178745 8.08095e-17)
(0.0641876 0.10173 -1.52717e-16)
(0.85001 0.135154 3.70076e-17)
(0.817025 0.150371 0)
(0.776693 0.167916 0)
(0.727683 0.188033 -4.65816e-17)
(0.667229 0.210739 5.09384e-17)
(0.591609 0.234863 2.01255e-21)
(0.496397 0.256502 0)
(0.376247 0.266183 7.06046e-17)
(0.225021 0.244103 -6.06587e-17)
(0.082431 0.138759 1.88132e-16)
(0.869789 0.168991 -3.69122e-17)
(0.839262 0.188075 0)
(0.801523 0.2101 8.55684e-17)
(0.755652 0.23529 0)
(0.698817 0.263664 5.07822e-17)
(0.627112 0.293707 5.59997e-17)
(0.535615 0.320446 0)
(0.417726 0.331914 1.40706e-16)
(0.264397 0.303374 -2.01444e-17)
(0.105799 0.171962 -7.02637e-17)
(0.894009 0.198984 1.9087e-21)
(0.866317 0.221524 -1.57654e-16)
(0.831587 0.247596 -2.54329e-21)
(0.789378 0.277356 0)
(0.736755 0.310813 -5.04492e-17)
(0.669586 0.346108 -5.56113e-17)
(0.582354 0.377226 0)
(0.466984 0.389873 -1.39626e-16)
(0.31101 0.35496 -1.59797e-16)
(0.133351 0.200384 2.32087e-17)
(0.921749 0.224503 7.20111e-22)
(0.897154 0.250044 1.05921e-21)
(0.86575 0.279679 1.68449e-16)
(0.827606 0.313449 -1.2285e-21)
(0.779632 0.351342 -9.98631e-17)
(0.717435 0.391135 -1.10039e-16)
(0.634832 0.4258 -3.06187e-17)
(0.522105 0.438898 3.44929e-17)
(0.363004 0.39766 1.18341e-16)
(0.163911 0.223266 2.28906e-16)
(0.95196 0.245212 -1.68181e-21)
(0.930535 0.273344 7.71206e-17)
(0.902644 0.306058 -1.66297e-16)
(0.868824 0.343274 -4.50986e-17)
(0.82575 0.384931 2.46268e-16)
(0.76877 0.428415 1.0849e-16)
(0.690989 0.46571 -1.20656e-16)
(0.580939 0.478439 0)
(0.418351 0.430873 3.87885e-17)
(0.196161 0.240186 -4.04648e-16)
(0.983552 0.261207 -1.17836e-21)
(0.964837 0.291523 -7.59258e-17)
(0.940462 0.326897 3.83366e-21)
(0.911083 0.367062 -8.87246e-17)
(0.873048 0.411868 9.6847e-17)
(0.82151 0.458288 5.32984e-17)
(0.748824 0.49734 5.92371e-17)
(0.641624 0.508921 -3.33036e-17)
(0.475283 0.454993 3.79953e-17)
(0.228806 0.251244 1.75923e-16)
(1.01455 0.274065 -6.94618e-17)
(0.997424 0.306112 -7.45264e-17)
(0.97672 0.343772 8.02895e-17)
(0.951942 0.386402 8.70008e-17)
(0.919231 0.433632 -1.8985e-16)
(0.873587 0.48193 0)
(0.806411 0.521387 0)
(0.702058 0.530539 -3.25544e-17)
(0.531201 0.469957 3.70908e-17)
(0.259844 0.256211 0)
(1.04308 0.294239 6.79334e-17)
(1.02674 0.327229 7.29663e-17)
(1.0096 0.36518 0)
(0.988679 0.407956 -8.53441e-17)
(0.960385 0.454373 0)
(0.919319 0.50014 -1.02683e-16)
(0.855777 0.534807 -5.71137e-17)
(0.752087 0.537068 -6.42956e-17)
(0.575798 0.469038 -1.46945e-16)
(0.2837 0.251664 1.70471e-16)
(1.07403 0.312386 1.55405e-21)
(1.06117 0.345883 -1.48394e-16)
(1.04749 0.383281 2.14279e-21)
(1.02997 0.424905 8.68269e-17)
(1.00501 0.468687 0)
(0.966499 0.509526 1.04538e-16)
(0.903526 0.536578 0)
(0.796814 0.529219 1.31051e-16)
(0.612384 0.452461 1.47946e-20)
(0.301221 0.237296 -1.73965e-16)
(1.10636 0.326416 7.00558e-17)
(1.0974 0.359402 -7.52633e-17)
(1.08703 0.395561 2.43559e-16)
(1.07247 0.435036 -8.81097e-17)
(1.0499 0.475034 -9.62992e-17)
(1.01251 0.509797 -5.3071e-17)
(0.948314 0.528288 2.30431e-21)
(0.836821 0.510858 6.65934e-17)
(0.643279 0.42591 2.66678e-16)
(0.314339 0.217197 4.42596e-17)
(1.13973 0.335515 -1.4178e-16)
(1.13438 0.367266 0)
(1.12693 0.401439 -4.37618e-21)
(1.11467 0.437792 8.91958e-17)
(1.09346 0.472966 2.43789e-16)
(1.05581 0.500767 5.37516e-17)
(0.988814 0.510245 1.19735e-16)
(0.87114 0.483096 -1.01254e-16)
(0.667818 0.391548 -1.93219e-16)
(0.322952 0.193264 1.7968e-16)
(1.17342 0.339378 7.15615e-17)
(1.17113 0.36923 7.68883e-17)
(1.16598 0.400685 -1.65935e-16)
(1.15513 0.433024 -4.50397e-17)
(1.13403 0.462462 -1.96986e-16)
(1.09451 0.482584 -1.6292e-16)
(1.023 0.482839 -2.42006e-16)
(0.897726 0.446689 1.36493e-16)
(0.684257 0.350659 0)
(0.326444 0.166694 -2.04584e-16)
(1.20642 0.3378 1.08077e-16)
(1.20651 0.365153 0)
(1.20281 0.393235 0)
(1.19226 0.420822 0)
(1.16982 0.44384 0)
(1.12676 0.455873 1.0943e-16)
(1.04904 0.44707 1.21939e-16)
(0.914964 0.403033 0)
(0.691507 0.304933 0)
(0.324618 0.138714 -9.1719e-17)
(1.23767 0.330801 -3.61792e-17)
(1.23927 0.35514 -8.47469e-22)
(1.23599 0.379297 -4.1955e-17)
(1.22447 0.401573 4.55565e-17)
(1.19916 0.41776 -4.98267e-17)
(1.15088 0.421647 1.37413e-16)
(1.06546 0.404362 -3.06299e-17)
(0.921818 0.353932 6.91282e-17)
(0.689163 0.256302 -1.98076e-17)
(0.317657 0.110534 9.22296e-17)
(1.26611 0.318637 7.24725e-17)
(1.26822 0.33955 -3.89361e-17)
(1.26416 0.359365 0)
(1.25027 0.375971 -4.56328e-17)
(1.22054 0.385187 0)
(1.16551 0.381213 -5.50611e-17)
(1.07123 0.35639 -3.06822e-17)
(0.917802 0.301349 3.46264e-17)
(0.67738 0.206704 0)
(0.306023 0.0832463 -1.15518e-17)
(1.29071 0.301767 -5.42943e-17)
(1.29224 0.318971 3.88922e-17)
(1.28617 0.334164 0)
(1.26853 0.344935 0)
(1.23297 0.347295 4.98504e-17)
(1.16998 0.33604 -2.74971e-17)
(1.06617 0.304922 -3.06445e-17)
(0.903303 0.247252 -6.91709e-17)
(0.657011 0.157993 3.96403e-17)
(0.290443 0.0578093 -5.19097e-17)
(1.3108 0.280811 5.40917e-17)
(1.31075 0.294038 -5.54849e-22)
(1.30151 0.304344 -2.09056e-17)
(1.27883 0.309178 0)
(1.23614 0.304934 -2.48258e-17)
(1.16416 0.287219 -1.3691e-17)
(1.05039 0.251367 3.81448e-17)
(0.87874 0.193336 8.60832e-18)
(0.628704 0.111858 -4.43913e-17)
(0.271399 0.0350481 5.1661e-17)
(1.05604 0.270099 -4.18192e-16)
(1.08482 0.286613 1.03443e-16)
(1.11416 0.299762 0)
(1.1444 0.308704 1.0232e-16)
(1.17517 0.313184 -3.25642e-23)
(1.20555 0.313017 -1.56438e-18)
(1.23465 0.308168 7.78212e-19)
(1.26157 0.298793 -4.99843e-17)
(1.28547 0.285215 4.98267e-17)
(1.30558 0.267992 -2.46662e-17)
(1.0656 0.257401 2.08552e-16)
(1.09217 0.271263 0)
(1.11913 0.282473 0)
(1.14685 0.290227 1.00582e-16)
(1.17524 0.294232 1.57257e-18)
(1.20346 0.29432 -7.81472e-19)
(1.23072 0.29044 7.77518e-19)
(1.25627 0.282693 4.87858e-17)
(1.27939 0.271313 -4.94075e-17)
(1.29927 0.25681 2.46511e-17)
(1.07487 0.246715 0)
(1.09891 0.258335 -1.03078e-16)
(1.12343 0.267553 1.02143e-16)
(1.14868 0.273934 -1.01336e-16)
(1.17468 0.277201 0)
(1.2007 0.277202 -7.81776e-19)
(1.22605 0.273886 -9.88077e-17)
(1.25011 0.267318 0)
(1.27229 0.257674 0)
(1.29173 0.245408 -2.46788e-17)
(1.08314 0.236448 0)
(1.10505 0.246068 1.13498e-21)
(1.12734 0.253564 -1.0206e-16)
(1.15026 0.25872 1.01298e-16)
(1.17394 0.261297 7.86289e-19)
(1.19777 0.261159 -1.0088e-16)
(1.22118 0.258258 -2.61679e-22)
(1.24366 0.252636 0)
(1.26473 0.244419 0)
(1.28354 0.234003 0)
(1.09004 0.226472 -1.03683e-16)
(1.11017 0.234459 2.05609e-16)
(1.13053 0.240539 7.96675e-19)
(1.1514 0.244647 -1.02051e-16)
(1.17297 0.246596 -7.86299e-19)
(1.19475 0.246279 -1.00133e-16)
(1.2163 0.243662 1.50342e-16)
(1.23718 0.23877 -3.88163e-19)
(1.25706 0.231701 -4.91709e-17)
(1.27508 0.22279 -2.47349e-17)
(1.09566 0.216743 2.06976e-16)
(1.11421 0.22344 -1.02669e-16)
(1.1329 0.228395 1.01892e-16)
(1.15199 0.231643 1.00431e-16)
(1.1717 0.233051 1.02221e-16)
(1.19164 0.232548 9.93843e-17)
(1.21146 0.230115 -4.98851e-17)
(1.23083 0.225777 -3.8849e-19)
(1.24948 0.219614 3.8728e-19)
(1.26663 0.211916 2.47627e-17)
(1.10012 0.207251 -1.03697e-16)
(1.11726 0.21291 -1.02131e-16)
(1.13447 0.216978 -1.01809e-16)
(1.15202 0.219541 -1.01184e-16)
(1.1701 0.220511 -9.98637e-17)
(1.18841 0.219846 9.86354e-17)
(1.20668 0.217545 -4.9136e-17)
(1.22463 0.213637 0)
(1.2421 0.208192 9.93165e-17)
(1.25834 0.20147 0)
(1.10355 0.198009 0)
(1.11942 0.202819 1.02397e-16)
(1.13533 0.206183 -1.01725e-16)
(1.15153 0.208209 7.90192e-19)
(1.16819 0.208839 -1.02224e-16)
(1.18507 0.208051 -1.00235e-16)
(1.20194 0.20586 5.07271e-17)
(1.21861 0.202297 -4.9811e-17)
(1.23496 0.197432 -9.9417e-17)
(1.25029 0.191499 0)
(1.10607 0.189035 -1.02905e-16)
(1.1208 0.193144 0)
(1.13556 0.195947 1.01642e-16)
(1.15057 0.197554 1.01897e-16)
(1.16599 0.197927 1.20454e-22)
(1.18161 0.197058 9.94859e-17)
(1.19725 0.194969 0)
(1.21276 0.191696 4.98527e-17)
(1.22806 0.187307 4.99531e-17)
(1.24253 0.182022 -2.50413e-17)
(1.10782 0.180342 1.02713e-16)
(1.12151 0.183873 -1.02126e-16)
(1.13524 0.186226 1.01559e-16)
(1.1492 0.187507 -1.0028e-16)
(1.16353 0.18769 1.99733e-16)
(1.17804 0.186774 -9.87361e-17)
(1.1926 0.184788 -7.81388e-19)
(1.20707 0.181767 -3.89799e-19)
(1.22141 0.17778 -4.94202e-17)
(1.23505 0.173032 2.48753e-17)
(1.1089 0.171941 0)
(1.12165 0.174991 1.01992e-16)
(1.13445 0.176983 -1.01476e-16)
(1.14749 0.17801 -7.89302e-19)
(1.16085 0.178055 -9.90812e-17)
(1.17438 0.177123 -7.83894e-19)
(1.18798 0.175242 -7.81856e-19)
(1.20152 0.172447 7.80268e-19)
(1.21499 0.168807 4.98597e-17)
(1.22786 0.164513 2.49036e-17)
(1.10941 0.163837 1.02728e-16)
(1.12132 0.166488 -3.97883e-19)
(1.13329 0.168187 0)
(1.14549 0.169017 0)
(1.15799 0.168966 7.86358e-19)
(1.17066 0.16804 -5.17541e-17)
(1.18339 0.166265 1.28064e-23)
(1.19611 0.163678 5.03692e-17)
(1.20879 0.160342 3.89928e-19)
(1.22095 0.15644 -2.49318e-17)
(1.10944 0.156032 -1.02138e-16)
(1.12059 0.158349 -1.01723e-16)
(1.13181 0.159812 -1.01309e-16)
(1.14326 0.16049 -7.88708e-19)
(1.15499 0.160373 1.26477e-23)
(1.16689 0.159469 5.02028e-17)
(1.17886 0.157803 7.82834e-19)
(1.19083 0.155408 9.42955e-23)
(1.20279 0.152344 0)
(1.21431 0.148784 0)
(1.10907 0.148523 -1.02345e-16)
(1.11953 0.150564 2.03575e-16)
(1.13007 0.151834 1.01227e-16)
(1.14086 0.152394 0)
(1.1519 0.152235 -9.98699e-17)
(1.1631 0.151365 4.94351e-17)
(1.17438 0.149807 0)
(1.18568 0.14759 -5.0454e-17)
(1.19699 0.144773 -2.46152e-17)
(1.20792 0.141516 0)
(1.10837 0.141307 1.02155e-16)
(1.1182 0.143116 -1.01852e-16)
(1.12814 0.14423 0)
(1.13832 0.144699 1.00091e-16)
(1.14874 0.144516 1.00657e-16)
(1.15931 0.143688 -1.00474e-16)
(1.16998 0.142236 -4.9379e-17)
(1.18067 0.140187 0)
(1.19139 0.137594 2.50313e-17)
(1.20177 0.134609 0)
(1.10739 0.134377 1.01568e-16)
(1.11667 0.135993 0)
(1.12605 0.13698 0)
(1.13568 0.137379 -1.00053e-16)
(1.14554 0.137185 -1.06294e-23)
(1.15555 0.136404 4.86834e-17)
(1.16565 0.135055 5.0978e-17)
(1.17579 0.133163 -3.91773e-19)
(1.18598 0.130775 1.95759e-19)
(1.19585 0.128035 1.9567e-19)
(1.1062 0.127725 -2.02759e-16)
(1.11496 0.129179 1.01189e-16)
(1.12386 0.130062 7.88889e-19)
(1.13298 0.130408 -7.87527e-19)
(1.14233 0.130213 -5.03292e-17)
(1.15183 0.129483 0)
(1.16143 0.128233 0)
(1.17106 0.126487 5.01896e-17)
(1.18075 0.124289 0)
(1.19017 0.121771 0)
(1.10483 0.121342 1.01587e-16)
(1.11314 0.12266 -1.01451e-16)
(1.12158 0.123459 7.88243e-19)
(1.13025 0.123766 -1.02339e-16)
(1.13914 0.123576 5.11159e-17)
(1.14817 0.122897 0)
(1.1573 0.121743 -7.8524e-19)
(1.16648 0.120133 -4.98394e-17)
(1.17572 0.118109 1.96158e-19)
(1.18471 0.115794 1.96117e-19)
(1.10333 0.11522 -1.01398e-16)
(1.11122 0.116423 3.94236e-19)
(1.11925 0.117153 -1.00813e-16)
(1.12751 0.117429 1.00726e-16)
(1.13598 0.117251 7.86397e-19)
(1.14458 0.116624 -7.86015e-19)
(1.15329 0.115559 4.95009e-17)
(1.16205 0.114076 7.8554e-19)
(1.17087 0.112213 0)
(1.17947 0.110084 0)
(1.10173 0.109346 -3.93531e-19)
(1.10924 0.110452 1.01185e-16)
(1.1169 0.111125 1.00731e-16)
(1.12479 0.11138 -1.01475e-16)
(1.13286 0.111217 5.11163e-17)
(1.14108 0.11064 0)
(1.14939 0.109661 -5.03176e-17)
(1.15777 0.108296 -3.93097e-19)
(1.16621 0.106581 3.93111e-19)
(1.17444 0.104623 0)
(1.10006 0.103711 3.93346e-19)
(1.10723 0.104735 -1.01053e-16)
(1.11455 0.10536 -1.00648e-16)
(1.12209 0.1056 1.0065e-16)
(1.12981 0.105454 -1.0066e-16)
(1.13767 0.104926 0)
(1.14563 0.104027 0)
(1.15365 0.102772 -3.9343e-19)
(1.16173 0.101194 -2.49879e-17)
(1.16963 0.0993926 2.53858e-17)
(1.09835 0.0983033 1.00052e-16)
(1.10521 0.0992564 -1.00135e-16)
(1.11221 0.0998429 1.00566e-16)
(1.11944 0.100072 -5.10916e-17)
(1.12683 0.099944 7.86441e-19)
(1.13437 0.0994634 0)
(1.14199 0.0986397 -5.03797e-17)
(1.14969 0.0974867 -3.93762e-19)
(1.15744 0.0960354 2.56043e-17)
(1.16503 0.0943783 -2.52179e-17)
(1.09661 0.0931127 0)
(1.10318 0.0940047 1.00397e-16)
(1.10991 0.0945582 -1.00483e-16)
(1.11684 0.0947803 5.10721e-17)
(1.12394 0.0946709 4.95441e-17)
(1.13117 0.0942353 0)
(1.1385 0.093482 4.96231e-17)
(1.14588 0.0924238 3.94102e-19)
(1.15333 0.0910895 1.9716e-19)
(1.16064 0.0895654 1.97242e-19)
(1.09487 0.0881281 3.90915e-19)
(1.10118 0.0889668 -3.91663e-19)
(1.10765 0.0894922 1.00401e-16)
(1.11431 0.0897095 7.85421e-19)
(1.12114 0.089619 -5.03306e-17)
(1.12809 0.089226 4.96019e-17)
(1.13514 0.0885384 -4.96537e-17)
(1.14224 0.087568 2.40602e-17)
(1.14941 0.086342 5.92079e-19)
(1.15644 0.0849405 -1.97468e-19)
(1.09314 0.083339 9.95003e-17)
(1.09921 0.0841306 3.91151e-19)
(1.10544 0.0846317 0)
(1.11186 0.0848457 0)
(1.11843 0.0847738 2.27321e-23)
(1.12513 0.0844208 -5.04062e-17)
(1.13192 0.0837943 1.00157e-16)
(1.13876 0.0829055 3.94783e-19)
(1.14567 0.0817795 1.97564e-19)
(1.15245 0.0804913 1.28501e-17)
(1.09143 0.0787348 -9.93176e-17)
(1.09729 0.0794844 -3.90641e-19)
(1.10329 0.0799639 -5.01183e-17)
(1.10949 0.0801758 0)
(1.11583 0.0801216 5.03308e-17)
(1.12229 0.079806 0)
(1.12884 0.0792364 -4.97149e-17)
(1.13544 0.078423 -2.64716e-17)
(1.1421 0.0773896 3.95529e-19)
(1.14866 0.0762061 1.30514e-23)
(1.08976 0.0743053 -9.99125e-17)
(1.09541 0.0750168 3.90131e-19)
(1.10122 0.0754768 5.00773e-17)
(1.1072 0.0756872 -7.84518e-19)
(1.11333 0.0756496 7.86422e-19)
(1.11957 0.0753689 0)
(1.1259 0.0748519 -7.8961e-19)
(1.13228 0.0741085 3.95438e-19)
(1.13872 0.0731608 1.97969e-19)
(1.14506 0.0720741 -1.24834e-17)
(1.08813 0.0700406 9.89533e-17)
(1.0936 0.070717 3.89622e-19)
(1.09922 0.0711591 -7.81814e-19)
(1.10501 0.0713682 1.56844e-18)
(1.11094 0.071346 -7.86422e-19)
(1.11698 0.0710975 0)
(1.1231 0.0706292 -2.52832e-17)
(1.12928 0.0699505 0)
(1.13551 0.0690822 0)
(1.14164 0.068085 1.26962e-17)
(1.08654 0.0659311 4.95796e-17)
(1.09185 0.0665747 0)
(1.0973 0.0669999 0)
(1.10292 0.0672074 -7.83914e-19)
(1.10866 0.0671992 -4.95443e-17)
(1.11452 0.0669804 0)
(1.12045 0.0665572 2.60894e-17)
(1.12643 0.0659384 -1.18831e-18)
(1.13246 0.0651436 3.96748e-19)
(1.13841 0.0642293 -1.27108e-17)
(1.08502 0.0619673 -9.93644e-17)
(1.09017 0.06258 3.88607e-19)
(1.09546 0.0629888 7.80533e-19)
(1.10092 0.0631943 -5.17186e-17)
(1.1065 0.0631988 1.02234e-16)
(1.11218 0.0630072 -7.88916e-19)
(1.11793 0.0626255 2.53144e-17)
(1.12374 0.0620621 -3.96438e-19)
(1.12959 0.0613354 1.98579e-19)
(1.13537 0.060498 1.98837e-19)
(1.08356 0.0581402 4.90125e-17)
(1.08857 0.0587231 3.88101e-19)
(1.09371 0.0591159 0)
(1.09902 0.0593188 4.93487e-17)
(1.10444 0.0593345 -4.95442e-17)
(1.10996 0.0591676 2.52536e-17)
(1.11556 0.0588242 1.72289e-24)
(1.1212 0.0583121 -3.96775e-19)
(1.12688 0.0576485 3.97564e-19)
(1.13249 0.0568824 0)
(1.08216 0.054441 -3.85218e-19)
(1.08704 0.0549951 3.87596e-19)
(1.09205 0.0553718 0)
(1.09722 0.0555715 -5.01126e-17)
(1.1025 0.0555967 7.86412e-19)
(1.10787 0.0554524 -5.13135e-17)
(1.11332 0.0551441 -2.53456e-17)
(1.11881 0.0546794 -2.58124e-17)
(1.12433 0.0540743 1.98988e-19)
(1.1298 0.0533745 1.99297e-19)
(1.08083 0.0508612 -4.96026e-17)
(1.08559 0.0513871 4.99347e-17)
(1.09049 0.0517476 0)
(1.09552 0.0519431 5.08759e-17)
(1.10067 0.0519765 -7.86415e-19)
(1.10591 0.0518525 2.52704e-17)
(1.11121 0.0515764 0)
(1.11656 0.0511555 2.50394e-17)
(1.12194 0.0506048 5.97575e-19)
(1.12727 0.0499665 -1.99528e-19)
(1.07958 0.0473927 4.87446e-17)
(1.08423 0.0478906 3.86549e-19)
(1.08901 0.0482346 7.77976e-19)
(1.09393 0.0484251 -7.82405e-19)
(1.09895 0.0484652 0)
(1.10407 0.0483594 2.52788e-17)
(1.10924 0.0481129 -2.61699e-17)
(1.11446 0.0477325 2.58563e-17)
(1.11971 0.0472323 1.99399e-19)
(1.1249 0.0466513 1.29843e-17)
(1.07839 0.0440276 -4.90389e-17)
(1.08294 0.0444975 -4.94191e-17)
(1.08762 0.0448246 0)
(1.09243 0.0450093 0)
(1.09735 0.0450546 0)
(1.10234 0.0449651 -5.05744e-17)
(1.1074 0.0447456 7.93515e-19)
(1.1125 0.0444027 -2.66745e-17)
(1.11762 0.0439494 3.99207e-19)
(1.1227 0.0434217 -1.27994e-17)
(1.07729 0.0407582 -3.82376e-19)
(1.08174 0.0412002 3.85586e-19)
(1.08632 0.0415098 -7.767e-19)
(1.09104 0.0416876 7.81797e-19)
(1.09585 0.0417368 7.86401e-19)
(1.10074 0.0416617 -7.90486e-19)
(1.10569 0.041467 2.46142e-17)
(1.11068 0.0411587 3.9847e-19)
(1.11569 0.0407492 3.99619e-19)
(1.12065 0.0402714 0)
(1.07625 0.0375772 4.84791e-17)
(1.08062 0.037991 3.85086e-19)
(1.08512 0.0382826 2.48341e-17)
(1.08974 0.0384527 7.81488e-19)
(1.09446 0.0385045 -4.89974e-24)
(1.09926 0.0384421 -7.90748e-19)
(1.10411 0.0382699 0)
(1.10899 0.0379938 0)
(1.11389 0.037625 1.2801e-17)
(1.11876 0.0371937 0)
(1.07529 0.0344774 3.81031e-19)
(1.07959 0.0348628 -3.84587e-19)
(1.08401 0.0351358 -2.55891e-17)
(1.08855 0.0352973 4.7076e-24)
(1.09318 0.0353505 7.86398e-19)
(1.09789 0.0352991 2.53123e-17)
(1.10265 0.0351476 2.54396e-17)
(1.10744 0.0349013 -3.99145e-19)
(1.11225 0.0345705 -1.24138e-17)
(1.11702 0.0341829 0)
(1.07441 0.0314521 -3.80339e-19)
(1.07864 0.0318086 3.84088e-19)
(1.08299 0.0320625 -2.47933e-17)
(1.08745 0.0322145 0)
(1.09201 0.0322678 0)
(1.09663 0.0322262 0)
(1.10131 0.0320935 -2.54553e-17)
(1.10602 0.0318748 -1.31831e-17)
(1.11074 0.0315796 4.00861e-19)
(1.11542 0.0312329 0)
(1.07361 0.0284944 -3.7965e-19)
(1.07777 0.0288218 3.83591e-19)
(1.08206 0.0290559 2.39988e-17)
(1.08645 0.0291977 4.53323e-24)
(1.09094 0.0292501 7.86388e-19)
(1.09549 0.0292167 0)
(1.10009 0.0291012 7.95968e-19)
(1.10472 0.0289083 1.1595e-17)
(1.10936 0.0286464 -1.24396e-17)
(1.11397 0.0283384 0)
(1.07288 0.0255981 0)
(1.07699 0.0258959 2.4518e-17)
(1.08122 0.0261096 2.47526e-17)
(1.08555 0.0262403 -7.80268e-19)
(1.08997 0.0262909 7.86382e-19)
(1.09446 0.0262646 0)
(1.09899 0.0261648 1.35398e-17)
(1.10355 0.0259959 -1.20051e-18)
(1.10812 0.0257654 1.3055e-17)
(1.11267 0.0254937 2.01394e-19)
(1.07222 0.0227569 -3.78278e-19)
(1.07629 0.0230245 -2.41037e-17)
(1.08046 0.0232173 -2.39594e-17)
(1.08475 0.0233363 -4.39316e-24)
(1.08911 0.023384 -7.86376e-19)
(1.09354 0.0233637 0)
(1.09801 0.0232785 -1.35482e-17)
(1.10251 0.023132 4.00514e-19)
(1.10702 0.0229311 6.03165e-19)
(1.11149 0.0226938 -2.01629e-19)
(1.07165 0.0199645 3.77594e-19)
(1.07567 0.0202017 -3.82104e-19)
(1.0798 0.020373 0)
(1.08403 0.0204795 0)
(1.08835 0.0205237 0)
(1.09273 0.0205085 -1.26771e-17)
(1.09715 0.0204365 -1.27591e-17)
(1.10159 0.020311 -4.00852e-19)
(1.10604 0.0201381 2.01266e-19)
(1.11046 0.0199335 2.01866e-19)
(1.07114 0.0172152 -3.76913e-19)
(1.07513 0.0174213 3.81611e-19)
(1.07922 0.0175706 1.31174e-17)
(1.08342 0.0176642 -1.3249e-17)
(1.08769 0.0177042 0)
(1.09202 0.0176931 2.53624e-17)
(1.09639 0.0176333 1.2767e-17)
(1.10079 0.0175277 6.01794e-18)
(1.10518 0.0173814 -6.24567e-18)
(1.10956 0.0172079 2.02102e-19)
(1.07072 0.014503 -1.24157e-17)
(1.07467 0.0146777 1.25769e-17)
(1.07873 0.0148046 -1.23357e-17)
(1.08289 0.0148847 2.41504e-17)
(1.08713 0.0149198 7.86356e-19)
(1.09142 0.0149122 -2.53708e-17)
(1.09575 0.0148637 6.38745e-18)
(1.1001 0.0147769 -6.82617e-18)
(1.10446 0.0146559 6.85723e-18)
(1.10879 0.0145121 0)
(1.07036 0.0118221 1.23934e-17)
(1.07429 0.0119651 -3.80629e-19)
(1.07833 0.0120692 -7.70345e-19)
(1.08246 0.0121354 -1.16811e-17)
(1.08666 0.0121652 0)
(1.09092 0.0121603 1.26896e-17)
(1.09522 0.0121224 -7.19031e-18)
(1.09953 0.0120533 -5.22448e-18)
(1.10385 0.0119566 -6.05681e-19)
(1.10815 0.0118413 2.02577e-19)
(1.07008 0.00916696 -1.19962e-17)
(1.07399 0.00927787 -2.05362e-24)
(1.078 0.00935898 7.69712e-19)
(1.08211 0.00941097 -1.55686e-18)
(1.08629 0.00943501 1.57268e-18)
(1.09052 0.00943235 -7.14022e-18)
(1.09479 0.00940421 5.59593e-18)
(1.09908 0.00935205 3.62005e-18)
(1.10337 0.00927852 3.83998e-18)
(1.10764 0.00919061 -2.02815e-19)
(1.06987 0.00653186 1.16004e-17)
(1.07376 0.00661047 -1.1769e-17)
(1.07776 0.00666829 0)
(1.08185 0.00670575 0)
(1.08601 0.00672357 7.86327e-19)
(1.09023 0.00672258 5.55532e-18)
(1.09448 0.0067036 -6.39929e-18)
(1.09874 0.00666761 2.81801e-18)
(1.10301 0.00661648 -3.03473e-18)
(1.10725 0.00655509 2.03054e-19)
(1.06973 0.00391111 3.73534e-19)
(1.07362 0.00395707 -3.79156e-19)
(1.07761 0.00399123 3.07379e-18)
(1.08168 0.0040137 -7.77814e-19)
(1.08583 0.0040248 3.14528e-18)
(1.09003 0.00402495 -2.38163e-18)
(1.09427 0.00401458 0)
(1.09852 0.00399422 -4.02917e-19)
(1.10277 0.00396493 4.05055e-19)
(1.107 0.00392954 -8.13172e-19)
(1.06966 0.00130076 -3.73893e-19)
(1.07354 0.00131492 3.79746e-19)
(1.07753 0.00132568 -3.85032e-18)
(1.0816 0.00133298 7.79847e-19)
(1.08574 0.00133683 -1.57746e-18)
(1.08993 0.00133735 1.59326e-18)
(1.09416 0.00133462 0)
(1.0984 0.00132877 -4.04571e-19)
(1.10265 0.00132009 2.03406e-19)
(1.10687 0.00130946 1.02103e-18)
(1.56793 0.0282522 0)
(1.07542 0.0116578 0)
(0.979469 0.0192663 0)
(1.02241 0.0351961 0)
(1.03375 0.0444078 0)
(1.02933 0.051949 0)
(1.02673 0.0607011 0)
(1.02566 0.070197 0)
(1.02444 0.0801435 0)
(1.02303 0.0907089 0)
(1.02167 0.102063 0)
(1.02047 0.114315 0)
(1.01956 0.127571 0)
(1.01906 0.141943 0)
(1.01914 0.157537 0)
(1.02002 0.174438 0)
(1.02196 0.192683 0)
(1.02532 0.212201 0)
(1.03061 0.232656 0)
(1.03753 0.252726 0)
(1.57386 0.0192393 0)
(1.06517 0.0150169 0)
(0.981045 0.022484 0)
(1.02583 0.0354295 0)
(1.03469 0.0445744 0)
(1.03017 0.0526579 0)
(1.02836 0.0615602 0)
(1.02784 0.0710571 0)
(1.02711 0.0809899 0)
(1.02629 0.0914949 0)
(1.02562 0.102709 0)
(1.02519 0.114728 0)
(1.02511 0.12764 0)
(1.02553 0.141533 0)
(1.02662 0.156484 0)
(1.0286 0.172543 0)
(1.03172 0.189698 0)
(1.03634 0.207787 0)
(1.04284 0.226252 0)
(1.05043 0.243534 0)
(1.57803 0.0128195 0)
(1.06011 0.0176798 0)
(0.980411 0.0250012 0)
(1.02678 0.0353811 0)
(1.03505 0.0444656 0)
(1.03077 0.0530315 0)
(1.02959 0.0620347 0)
(1.0296 0.0714859 0)
(1.02939 0.0813582 0)
(1.02916 0.091754 0)
(1.02913 0.102777 0)
(1.02941 0.114507 0)
(1.0301 0.127017 0)
(1.03133 0.140373 0)
(1.03329 0.154623 0)
(1.03617 0.169783 0)
(1.0402 0.185804 0)
(1.04568 0.202475 0)
(1.05292 0.2192 0)
(1.06122 0.234528 0)
(1.58166 0.00998796 0)
(1.05771 0.0181029 0)
(0.979345 0.0257082 0)
(1.02689 0.0351366 0)
(1.03518 0.0442441 0)
(1.03118 0.0530667 0)
(1.03051 0.0621274 0)
(1.03102 0.0715392 0)
(1.03132 0.0813346 0)
(1.03165 0.0915946 0)
(1.03224 0.102402 0)
(1.03316 0.113824 0)
(1.03453 0.12592 0)
(1.03648 0.138734 0)
(1.03918 0.152295 0)
(1.0428 0.166595 0)
(1.04755 0.18156 0)
(1.05366 0.196974 0)
(1.0614 0.212271 0)
(1.0702 0.226076 0)
(1.58509 0.0087392 0)
(1.0566 0.0178378 0)
(0.978508 0.0257022 0)
(1.02686 0.0347708 0)
(1.0353 0.0438464 0)
(1.03152 0.0527664 0)
(1.03125 0.0618407 0)
(1.03221 0.0711962 0)
(1.03298 0.0808857 0)
(1.03382 0.0909774 0)
(1.03495 0.10154 0)
(1.03645 0.112628 0)
(1.03842 0.124288 0)
(1.041 0.13655 0)
(1.04432 0.149425 0)
(1.04854 0.162888 0)
(1.05385 0.176855 0)
(1.06043 0.191111 0)
(1.06851 0.20513 0)
(1.07761 0.217616 0)
(1.58844 0.00813082 0)
(1.05619 0.0175015 0)