/*--------------------------------*- C++ -*----------------------------------*\
  =========                 |
  \\      /  F ield         | OpenFOAM: The Open Source CFD Toolbox
   \\    /   O peration     | Website:  https://openfoam.org
    \\  /    A nd           | Version:  6
     \\/     M anipulation  |
\*---------------------------------------------------------------------------*/
FoamFile
{
    version     2.0;
    format      ascii;
    class       volScalarField;
    location    "1.2";
    object      p;
}
// * * * * * * * * * * * * * * * * * * * * * * * * * * * * * * * * * * * * * //

dimensions      [0 2 -2 0 0 0 0];

internalField   nonuniform List<scalar> 
5600
(
994.715
996.144
997.243
997.26
997.139
997.122
997.14
997.151
997.157
997.164
997.171
997.18
997.189
997.199
997.211
997.223
997.236
997.251
997.268
997.286
994.652
996.171
997.264
997.26
997.136
997.122
997.14
997.151
997.157
997.163
997.171
997.179
997.189
997.199
997.21
997.222
997.235
997.25
997.266
997.284
994.617
996.18
997.274
997.26
997.135
997.122
997.14
997.149
997.155
997.161
997.168
997.177
997.186
997.195
997.206
997.218
997.23
997.245
997.26
997.276
994.578
996.184
997.281
997.26
997.132
997.12
997.138
997.147
997.152
997.157
997.164
997.172
997.18
997.189
997.199
997.21
997.221
997.234
997.248
997.262
994.532
996.187
997.289
997.259
997.129
997.117
997.135
997.143
997.147
997.152
997.158
997.165
997.172
997.18
997.189
997.199
997.209
997.22
997.231
997.243
994.479
996.192
997.298
997.257
997.125
997.114
997.13
997.138
997.141
997.145
997.15
997.156
997.162
997.169
997.177
997.184
997.193
997.201
997.21
997.218
994.421
996.198
997.308
997.255
997.12
997.109
997.125
997.131
997.133
997.137
997.141
997.146
997.151
997.156
997.162
997.167
997.173
997.179
997.184
997.189
994.36
996.209
997.321
997.252
997.113
997.103
997.119
997.123
997.124
997.127
997.13
997.133
997.137
997.141
997.145
997.148
997.151
997.154
997.156
997.156
994.288
996.227
997.335
997.245
997.104
997.096
997.111
997.114
997.114
997.116
997.118
997.12
997.122
997.124
997.126
997.128
997.128
997.128
997.126
997.122
994.143
996.284
997.358
997.225
997.09
997.088
997.102
997.104
997.103
997.104
997.105
997.106
997.107
997.107
997.107
997.107
997.105
997.101
997.096
997.087
997.309
997.34
997.375
997.416
997.462
997.515
997.575
997.641
997.713
997.886
997.306
997.336
997.37
997.41
997.455
997.506
997.564
997.627
997.695
997.867
997.296
997.325
997.358
997.396
997.438
997.486
997.54
997.599
997.662
997.829
997.279
997.305
997.336
997.371
997.411
997.455
997.503
997.556
997.613
997.771
997.254
997.277
997.306
997.338
997.373
997.412
997.454
997.5
997.548
997.695
997.224
997.243
997.269
997.297
997.327
997.36
997.395
997.431
997.471
997.603
997.189
997.204
997.226
997.25
997.274
997.3
997.327
997.354
997.383
997.498
997.149
997.16
997.18
997.198
997.217
997.236
997.254
997.271
997.288
997.383
997.108
997.115
997.131
997.144
997.157
997.168
997.178
997.186
997.192
997.263
997.064
997.07
997.082
997.09
997.096
997.1
997.101
997.097
997.089
997.136
997.028
997.036
997.041
997.042
997.039
997.03
997.012
996.986
996.956
996.991
996.988
996.992
996.99
996.985
996.974
996.955
996.927
996.888
996.848
996.861
996.945
996.944
996.936
996.924
996.906
996.88
996.843
996.797
996.749
996.739
996.9
996.894
996.881
996.863
996.838
996.804
996.759
996.706
996.652
996.622
996.853
996.843
996.825
996.801
996.77
996.73
996.679
996.62
996.561
996.512
996.807
996.792
996.769
996.741
996.705
996.659
996.604
996.541
996.478
996.413
996.762
996.742
996.716
996.684
996.644
996.594
996.535
996.47
996.405
996.327
996.718
996.696
996.666
996.631
996.588
996.536
996.476
996.409
996.344
996.253
996.678
996.653
996.621
996.584
996.539
996.487
996.426
996.36
996.294
996.192
996.642
996.615
996.582
996.543
996.498
996.445
996.385
996.32
996.253
996.143
997.023
996.982
996.94
996.897
996.854
996.811
996.769
996.729
996.693
996.66
997.009
996.97
996.93
996.891
996.851
996.812
996.773
996.737
996.704
996.673
996.993
996.956
996.919
996.883
996.847
996.811
996.777
996.744
996.713
996.685
996.978
996.943
996.909
996.876
996.843
996.811
996.779
996.749
996.721
996.695
996.965
996.933
996.901
996.871
996.841
996.811
996.782
996.755
996.729
996.704
996.953
996.923
996.894
996.866
996.838
996.811
996.784
996.759
996.735
996.712
996.942
996.915
996.888
996.862
996.836
996.811
996.787
996.763
996.741
996.719
996.933
996.907
996.882
996.858
996.834
996.811
996.788
996.767
996.746
996.726
996.924
996.9
996.877
996.855
996.833
996.811
996.79
996.77
996.75
996.732
996.916
996.894
996.873
996.852
996.832
996.811
996.792
996.773
996.755
996.737
996.909
996.889
996.869
996.85
996.83
996.812
996.793
996.775
996.758
996.741
996.903
996.884
996.865
996.847
996.829
996.812
996.794
996.778
996.762
996.746
996.897
996.879
996.862
996.845
996.828
996.812
996.796
996.78
996.765
996.749
996.892
996.875
996.859
996.843
996.827
996.812
996.797
996.782
996.767
996.753
996.888
996.872
996.857
996.842
996.827
996.812
996.797
996.783
996.77
996.756
996.883
996.868
996.854
996.84
996.826
996.812
996.798
996.785
996.772
996.759
996.879
996.865
996.852
996.839
996.825
996.812
996.799
996.786
996.774
996.762
996.876
996.863
996.85
996.837
996.825
996.812
996.8
996.788
996.776
996.764
996.872
996.86
996.848
996.836
996.824
996.812
996.8
996.789
996.777
996.766
996.869
996.858
996.846
996.835
996.823
996.812
996.801
996.79
996.779
996.768
996.867
996.855
996.845
996.834
996.823
996.812
996.801
996.791
996.78
996.77
996.864
996.853
996.843
996.833
996.822
996.812
996.802
996.791
996.781
996.771
996.862
996.851
996.842
996.832
996.822
996.812
996.802
996.792
996.783
996.773
996.859
996.85
996.84
996.831
996.821
996.812
996.802
996.793
996.784
996.774
996.857
996.848
996.839
996.83
996.821
996.812
996.802
996.793
996.785
996.776
996.855
996.846
996.838
996.829
996.82
996.811
996.803
996.794
996.785
996.777
996.853
996.845
996.837
996.828
996.82
996.811
996.803
996.794
996.786
996.778
996.852
996.844
996.836
996.827
996.819
996.811
996.803
996.795
996.787
996.779
996.85
996.842
996.835
996.827
996.819
996.811
996.803
996.795
996.787
996.78
996.849
996.841
996.834
996.826
996.819
996.811
996.803
996.796
996.788
996.78
996.847
996.84
996.833
996.826
996.818
996.811
996.803
996.796
996.789
996.781
996.846
996.839
996.832
996.825
996.818
996.811
996.803
996.796
996.789
996.782
996.845
996.838
996.831
996.824
996.817
996.81
996.803
996.796
996.789
996.782
996.844
996.837
996.831
996.824
996.817
996.81
996.803
996.797
996.79
996.783
996.843
996.836
996.83
996.823
996.817
996.81
996.804
996.797
996.79
996.783
996.842
996.836
996.829
996.823
996.817
996.81
996.804
996.797
996.79
996.784
996.841
996.835
996.829
996.823
996.816
996.81
996.804
996.797
996.791
996.784
996.84
996.834
996.828
996.822
996.816
996.81
996.804
996.797
996.791
996.785
996.839
996.834
996.828
996.822
996.816
996.81
996.804
996.797
996.791
996.785
996.839
996.833
996.827
996.821
996.816
996.81
996.804
996.797
996.791
996.785
996.838
996.832
996.827
996.821
996.815
996.809
996.804
996.798
996.792
996.786
996.837
996.832
996.827
996.821
996.815
996.809
996.804
996.798
996.792
996.786
996.837
996.832
996.826
996.821
996.815
996.809
996.804
996.798
996.792
996.786
996.836
996.831
996.826
996.82
996.815
996.809
996.803
996.798
996.792
996.786
996.836
996.831
996.826
996.82
996.815
996.809
996.803
996.798
996.792
996.786
996.836
996.831
996.825
996.82
996.815
996.809
996.803
996.798
996.792
996.786
996.836
996.831
996.825
996.82
996.815
996.809
996.803
996.798
996.792
996.787
996.835
996.83
996.825
996.82
996.814
996.809
996.803
996.798
996.792
996.787
996.835
996.83
996.825
996.82
996.814
996.809
996.803
996.798
996.792
996.787
996.835
996.83
996.825
996.82
996.814
996.809
996.803
996.798
996.792
996.787
993.839
996.446
997.404
997.184
997.071
997.082
997.093
997.091
997.089
997.089
997.088
997.088
997.087
997.085
997.083
997.079
997.074
997.066
997.055
997.038
993.705
996.502
997.407
997.158
997.06
997.077
997.085
997.082
997.08
997.079
997.078
997.076
997.074
997.072
997.068
997.063
997.057
997.048
997.036
997.02
993.652
996.503
997.396
997.142
997.05
997.07
997.077
997.073
997.071
997.069
997.068
997.065
997.063
997.059
997.055
997.049
997.042
997.033
997.022
997.006
993.622
996.496
997.388
997.13
997.041
997.061
997.068
997.064
997.061
997.06
997.057
997.055
997.051
997.047
997.042
997.036
997.028
997.019
997.007
996.992
993.599
996.488
997.38
997.12
997.031
997.052
997.059
997.055
997.052
997.05
997.047
997.044
997.04
997.036
997.03
997.024
997.016
997.006
996.994
996.98
993.58
996.479
997.373
997.111
997.022
997.044
997.05
997.046
997.043
997.041
997.038
997.034
997.03
997.025
997.019
997.012
997.004
996.994
996.982
996.968
993.562
996.47
997.365
997.103
997.014
997.035
997.042
997.038
997.034
997.031
997.028
997.024
997.02
997.014
997.008
997.001
996.992
996.983
996.971
996.958
993.545
996.461
997.358
997.094
997.005
997.027
997.034
997.029
997.025
997.023
997.019
997.015
997.01
997.005
996.998
996.991
996.982
996.972
996.961
996.948
993.528
996.453
997.351
997.087
996.997
997.019
997.025
997.021
997.017
997.014
997.01
997.006
997.001
996.995
996.989
996.981
996.973
996.963
996.952
996.939
993.512
996.444
997.344
997.079
996.989
997.011
997.017
997.013
997.009
997.006
997.002
996.997
996.992
996.986
996.98
996.972
996.964
996.954
996.944
996.932
993.495
996.435
997.338
997.072
996.982
997.003
997.01
997.005
997.001
996.998
996.994
996.989
996.984
996.978
996.971
996.964
996.956
996.946
996.936
996.924
993.479
996.427
997.331
997.064
996.974
996.996
997.002
996.998
996.993
996.99
996.986
996.981
996.976
996.97
996.964
996.956
996.948
996.939
996.929
996.918
993.463
996.419
997.325
997.057
996.967
996.989
996.995
996.99
996.986
996.983
996.979
996.974
996.969
996.963
996.956
996.949
996.941
996.932
996.922
996.912
993.448
996.411
997.319
997.051
996.96
996.982
996.988
996.983
996.979
996.976
996.972
996.967
996.962
996.956
996.949
996.942
996.934
996.926
996.916
996.906
993.433
996.404
997.313
997.044
996.954
996.975
996.982
996.977
996.973
996.969
996.965
996.96
996.955
996.949
996.943
996.936
996.928
996.92
996.911
996.901
993.419
996.396
997.308
997.038
996.947
996.969
996.975
996.97
996.966
996.963
996.959
996.954
996.949
996.943
996.937
996.93
996.922
996.914
996.905
996.896
993.405
996.389
997.302
997.032
996.941
996.963
996.969
996.964
996.96
996.957
996.952
996.948
996.943
996.937
996.931
996.924
996.917
996.909
996.901
996.892
993.392
996.382
997.297
997.026
996.935
996.957
996.963
996.958
996.954
996.951
996.947
996.942
996.937
996.932
996.926
996.919
996.912
996.904
996.896
996.888
993.379
996.376
997.292
997.021
996.929
996.951
996.958
996.953
996.949
996.945
996.941
996.937
996.932
996.926
996.921
996.914
996.907
996.9
996.892
996.884
993.367
996.37
997.287
997.015
996.924
996.946
996.952
996.947
996.943
996.94
996.936
996.932
996.927
996.921
996.916
996.91
996.903
996.896
996.888
996.88
993.355
996.363
997.283
997.01
996.919
996.941
996.947
996.942
996.938
996.935
996.931
996.927
996.922
996.917
996.911
996.905
996.899
996.892
996.885
996.877
993.344
996.358
997.279
997.005
996.914
996.936
996.942
996.937
996.933
996.93
996.926
996.922
996.917
996.912
996.907
996.901
996.895
996.888
996.881
996.874
993.333
996.352
997.274
997.001
996.909
996.931
996.938
996.933
996.929
996.926
996.922
996.918
996.913
996.908
996.903
996.897
996.891
996.885
996.878
996.871
993.323
996.347
997.27
996.996
996.904
996.927
996.933
996.928
996.924
996.921
996.918
996.914
996.909
996.904
996.899
996.894
996.888
996.882
996.875
996.868
993.313
996.342
997.267
996.992
996.9
996.922
996.929
996.924
996.92
996.917
996.914
996.91
996.905
996.901
996.896
996.89
996.885
996.879
996.872
996.866
993.304
996.337
997.263
996.988
996.896
996.918
996.925
996.92
996.916
996.913
996.91
996.906
996.902
996.897
996.892
996.887
996.882
996.876
996.87
996.864
993.295
996.333
997.259
996.984
996.892
996.914
996.921
996.916
996.913
996.91
996.906
996.903
996.898
996.894
996.889
996.884
996.879
996.873
996.868
996.861
993.286
996.328
997.256
996.981
996.888
996.911
996.918
996.913
996.909
996.906
996.903
996.899
996.895
996.891
996.886
996.882
996.876
996.871
996.865
996.859
993.278
996.324
997.253
996.977
996.885
996.907
996.914
996.91
996.906
996.903
996.9
996.896
996.892
996.888
996.884
996.879
996.874
996.869
996.863
996.857
993.271
996.32
997.25
996.974
996.881
996.904
996.911
996.906
996.903
996.9
996.897
996.893
996.89
996.885
996.881
996.877
996.872
996.867
996.861
996.856
993.264
996.317
997.247
996.971
996.878
996.901
996.908
996.903
996.9
996.897
996.894
996.891
996.887
996.883
996.879
996.874
996.87
996.865
996.859
996.854
993.257
996.313
997.245
996.968
996.875
996.898
996.905
996.901
996.897
996.895
996.892
996.888
996.885
996.881
996.877
996.872
996.868
996.863
996.858
996.852
993.251
996.31
997.242
996.965
996.873
996.895
996.902
996.898
996.895
996.892
996.889
996.886
996.882
996.878
996.874
996.87
996.866
996.861
996.856
996.851
993.245
996.307
997.24
996.963
996.87
996.893
996.9
996.896
996.892
996.89
996.887
996.884
996.88
996.876
996.872
996.868
996.864
996.859
996.855
996.85
993.24
996.304
997.238
996.96
996.868
996.891
996.898
996.893
996.89
996.888
996.885
996.882
996.878
996.875
996.871
996.867
996.862
996.858
996.853
996.848
993.234
996.302
997.236
996.958
996.865
996.888
996.896
996.891
996.888
996.885
996.883
996.88
996.876
996.873
996.869
996.865
996.861
996.857
996.852
996.847
993.23
996.299
997.234
996.956
996.863
996.886
996.894
996.889
996.886
996.884
996.881
996.878
996.875
996.871
996.867
996.864
996.86
996.855
996.851
996.846
993.225
996.297
997.232
996.954
996.861
996.884
996.892
996.887
996.884
996.882
996.879
996.876
996.873
996.87
996.866
996.862
996.858
996.854
996.85
996.845
993.221
996.295
997.231
996.953
996.86
996.883
996.89
996.886
996.883
996.88
996.878
996.875
996.872
996.868
996.865
996.861
996.857
996.853
996.849
996.844
993.218
996.293
997.23
996.951
996.858
996.881
996.889
996.884
996.881
996.879
996.876
996.873
996.87
996.867
996.864
996.86
996.856
996.852
996.848
996.844
993.214
996.291
997.228
996.95
996.857
996.88
996.887
996.883
996.88
996.878
996.875
996.872
996.869
996.866
996.863
996.859
996.855
996.851
996.847
996.843
993.211
996.29
997.227
996.948
996.855
996.879
996.886
996.882
996.879
996.877
996.874
996.871
996.868
996.865
996.862
996.858
996.854
996.85
996.846
996.842
993.208
996.288
997.226
996.947
996.854
996.878
996.885
996.881
996.878
996.876
996.873
996.87
996.867
996.864
996.861
996.857
996.854
996.85
996.846
996.842
993.206
996.287
997.225
996.946
996.853
996.877
996.884
996.88
996.877
996.875
996.872
996.869
996.866
996.863
996.86
996.857
996.853
996.849
996.845
996.841
993.204
996.286
997.224
996.946
996.853
996.876
996.883
996.879
996.876
996.874
996.871
996.869
996.866
996.863
996.859
996.856
996.852
996.849
996.845
996.841
993.203
996.284
997.224
996.945
996.852
996.875
996.883
996.879
996.875
996.873
996.871
996.868
996.865
996.862
996.859
996.856
996.852
996.848
996.844
996.84
993.203
996.283
997.223
996.945
996.852
996.875
996.882
996.878
996.875
996.873
996.87
996.868
996.865
996.862
996.859
996.855
996.852
996.848
996.844
996.84
993.208
996.28
997.224
996.947
996.851
996.874
996.882
996.878
996.875
996.872
996.87
996.867
996.864
996.861
996.858
996.855
996.851
996.848
996.844
996.84
993.233
996.265
997.223
996.95
996.851
996.873
996.882
996.878
996.874
996.872
996.87
996.867
996.864
996.861
996.858
996.855
996.851
996.848
996.844
996.84
993.32
996.208
997.211
996.959
996.852
996.872
996.881
996.878
996.874
996.872
996.87
996.867
996.864
996.861
996.858
996.855
996.851
996.847
996.844
996.84
996.492
996.457
996.424
996.395
996.364
996.331
996.296
996.258
996.221
996.152
996.497
996.461
996.428
996.399
996.369
996.337
996.304
996.268
996.233
996.172
996.491
996.46
996.43
996.403
996.375
996.346
996.314
996.281
996.248
996.196
996.484
996.458
996.43
996.406
996.38
996.352
996.323
996.293
996.263
996.219
996.478
996.456
996.431
996.408
996.383
996.358
996.331
996.303
996.276
996.241
996.473
996.454
996.431
996.41
996.387
996.363
996.338
996.312
996.289
996.262
996.469
996.452
996.432
996.412
996.391
996.368
996.344
996.321
996.299
996.28
996.467
996.452
996.434
996.415
996.394
996.372
996.35
996.327
996.308
996.294
996.466
996.452
996.435
996.417
996.397
996.376
996.354
996.332
996.314
996.304
996.467
996.453
996.436
996.418
996.398
996.377
996.356
996.335
996.317
996.308
996.477
996.485
996.494
996.503
996.512
996.521
996.529
996.537
996.545
996.553
996.56
996.567
996.574
996.581
996.587
996.594
996.6
996.605
996.611
996.616
996.621
996.626
996.63
996.635
996.639
996.643
996.647
996.651
996.654
996.658
996.661
996.664
996.667
996.671
996.673
996.676
996.679
996.682
996.685
996.688
996.69
996.693
996.696
996.699
996.702
996.705
996.708
996.711
996.715
996.718
996.473
996.482
996.492
996.501
996.51
996.519
996.527
996.535
996.543
996.551
996.559
996.566
996.573
996.58
996.586
996.593
996.599
996.604
996.61
996.615
996.62
996.625
996.63
996.634
996.638
996.642
996.646
996.65
996.654
996.657
996.661
996.664
996.667
996.67
996.673
996.676
996.679
996.682
996.684
996.687
996.69
996.693
996.695
996.698
996.701
996.704
996.707
996.71
996.714
996.717
996.469
996.477
996.488
996.498
996.507
996.516
996.525
996.533
996.541
996.549
996.557
996.564
996.572
996.578
996.585
996.591
996.597
996.603
996.609
996.614
996.619
996.624
996.629
996.633
996.638
996.642
996.646
996.65
996.653
996.657
996.66
996.663
996.667
996.67
996.673
996.676
996.678
996.681
996.684
996.687
996.689
996.692
996.695
996.697
996.7
996.703
996.706
996.709
996.713
996.716
996.464
996.472
996.484
996.494
996.504
996.513
996.522
996.531
996.539
996.548
996.555
996.563
996.57
996.577
996.584
996.59
996.596
996.602
996.608
996.613
996.618
996.623
996.628
996.633
996.637
996.641
996.645
996.649
996.653
996.656
996.66
996.663
996.666
996.669
996.672
996.675
996.678
996.681
996.683
996.686
996.689
996.691
996.694
996.696
996.699
996.702
996.704
996.707
996.711
996.713
996.458
996.466
996.479
996.491
996.501
996.51
996.52
996.529
996.537
996.546
996.554
996.561
996.569
996.576
996.583
996.589
996.595
996.601
996.607
996.612
996.617
996.622
996.627
996.632
996.636
996.64
996.644
996.648
996.652
996.655
996.659
996.662
996.665
996.668
996.671
996.674
996.677
996.68
996.682
996.685
996.687
996.69
996.692
996.695
996.697
996.7
996.702
996.705
996.708
996.71
996.453
996.459
996.475
996.487
996.498
996.508
996.518
996.527
996.536
996.544
996.552
996.56
996.567
996.575
996.581
996.588
996.594
996.6
996.606
996.611
996.617
996.622
996.626
996.631
996.635
996.64
996.644
996.647
996.651
996.655
996.658
996.661
996.664
996.667
996.67
996.673
996.676
996.679
996.681
996.684
996.686
996.689
996.691
996.693
996.695
996.698
996.7
996.702
996.705
996.707
996.449
996.454
996.471
996.485
996.496
996.506
996.516
996.525
996.534
996.543
996.551
996.559
996.567
996.574
996.581
996.587
996.593
996.599
996.605
996.61
996.616
996.621
996.626
996.63
996.634
996.639
996.643
996.647
996.65
996.654
996.657
996.66
996.663
996.666
996.669
996.672
996.675
996.677
996.68
996.682
996.685
996.687
996.689
996.691
996.693
996.695
996.697
996.699
996.701
996.703
996.446
996.451
996.469
996.484
996.495
996.505
996.515
996.525
996.534
996.543
996.551
996.559
996.566
996.573
996.58
996.586
996.593
996.599
996.604
996.61
996.615
996.62
996.625
996.629
996.634
996.638
996.642
996.646
996.649
996.653
996.656
996.659
996.662
996.665
996.668
996.671
996.673
996.676
996.678
996.681
996.683
996.685
996.687
996.689
996.691
996.692
996.694
996.695
996.697
996.698
996.444
996.45
996.47
996.484
996.496
996.506
996.516
996.526
996.534
996.543
996.551
996.559
996.566
996.573
996.58
996.586
996.592
996.598
996.604
996.609
996.614
996.619
996.624
996.628
996.633
996.637
996.641
996.645
996.648
996.652
996.655
996.658
996.661
996.664
996.667
996.669
996.672
996.674
996.677
996.679
996.681
996.683
996.684
996.686
996.688
996.689
996.69
996.692
996.693
996.694
996.445
996.457
996.477
996.49
996.501
996.511
996.52
996.529
996.537
996.545
996.553
996.56
996.567
996.574
996.58
996.587
996.593
996.598
996.604
996.609
996.614
996.619
996.623
996.628
996.632
996.636
996.64
996.644
996.647
996.651
996.654
996.657
996.66
996.663
996.665
996.668
996.67
996.673
996.675
996.677
996.679
996.68
996.682
996.683
996.685
996.686
996.687
996.688
996.688
996.689
996.499
996.493
996.494
996.5
996.509
996.517
996.525
996.533
996.541
996.548
996.556
996.563
996.569
996.576
996.582
996.588
996.594
996.599
996.605
996.61
996.615
996.62
996.624
996.628
996.633
996.636
996.64
996.644
996.647
996.651
996.654
996.657
996.659
996.662
996.665
996.667
996.669
996.671
996.673
996.675
996.677
996.679
996.68
996.681
996.682
996.683
996.684
996.684
996.684
996.685
996.513
996.51
996.508
996.513
996.519
996.526
996.533
996.54
996.547
996.553
996.56
996.567
996.573
996.579
996.585
996.591
996.596
996.601
996.606
996.611
996.616
996.621
996.625
996.629
996.633
996.637
996.64
996.644
996.647
996.65
996.653
996.656
996.659
996.662
996.664
996.666
996.668
996.67
996.672
996.674
996.675
996.677
996.678
996.679
996.68
996.681
996.681
996.681
996.681
996.681
996.521
996.521
996.52
996.524
996.529
996.535
996.541
996.547
996.553
996.559
996.565
996.571
996.577
996.583
996.588
996.593
996.599
996.604
996.608
996.613
996.617
996.622
996.626
996.63
996.634
996.637
996.641
996.644
996.647
996.65
996.653
996.656
996.658
996.661
996.663
996.665
996.667
996.669
996.671
996.672
996.674
996.675
996.676
996.677
996.678
996.678
996.678
996.678
996.678
996.678
996.53
996.532
996.531
996.534
996.539
996.543
996.548
996.554
996.559
996.565
996.57
996.576
996.581
996.586
996.591
996.596
996.601
996.606
996.61
996.615
996.619
996.623
996.627
996.631
996.634
996.638
996.641
996.644
996.647
996.65
996.653
996.656
996.658
996.66
996.662
996.664
996.666
996.668
996.67
996.671
996.672
996.673
996.674
996.675
996.676
996.676
996.676
996.676
996.675
996.674
996.539
996.542
996.542
996.544
996.548
996.552
996.556
996.561
996.566
996.571
996.576
996.581
996.585
996.59
996.595
996.599
996.604
996.608
996.613
996.617
996.621
996.624
996.628
996.632
996.635
996.638
996.642
996.645
996.647
996.65
996.653
996.655
996.657
996.66
996.662
996.664
996.665
996.667
996.668
996.67
996.671
996.672
996.672
996.673
996.673
996.673
996.673
996.673
996.672
996.671
996.549
996.551
996.552
996.554
996.557
996.561
996.564
996.568
996.572
996.577
996.581
996.585
996.59
996.594
996.599
996.603
996.607
996.611
996.615
996.619
996.622
996.626
996.629
996.633
996.636
996.639
996.642
996.645
996.648
996.65
996.653
996.655
996.657
996.659
996.661
996.663
996.664
996.666
996.667
996.668
996.669
996.67
996.671
996.671
996.671
996.671
996.671
996.67
996.669
996.668
996.56
996.561
996.562
996.564
996.566
996.569
996.572
996.576
996.579
996.583
996.587
996.591
996.595
996.598
996.602
996.606
996.61
996.614
996.617
996.621
996.624
996.628
996.631
996.634
996.637
996.64
996.643
996.645
996.648
996.65
996.652
996.655
996.657
996.659
996.66
996.662
996.663
996.665
996.666
996.667
996.668
996.668
996.669
996.669
996.669
996.669
996.668
996.668
996.667
996.665
996.57
996.571
996.572
996.573
996.575
996.577
996.58
996.583
996.586
996.589
996.592
996.596
996.599
996.603
996.606
996.61
996.613
996.616
996.62
996.623
996.626
996.629
996.632
996.635
996.638
996.641
996.643
996.646
996.648
996.65
996.652
996.654
996.656
996.658
996.66
996.661
996.662
996.664
996.665
996.666
996.666
996.667
996.667
996.667
996.667
996.667
996.666
996.665
996.664
996.662
996.58
996.58
996.581
996.582
996.584
996.585
996.587
996.59
996.592
996.595
996.598
996.601
996.604
996.607
996.61
996.613
996.616
996.619
996.622
996.625
996.628
996.631
996.634
996.637
996.639
996.642
996.644
996.646
996.648
996.651
996.652
996.654
996.656
996.658
996.659
996.66
996.662
996.663
996.664
996.664
996.665
996.665
996.665
996.665
996.665
996.665
996.664
996.663
996.662
996.66
996.59
996.59
996.59
996.591
996.592
996.593
996.595
996.597
996.599
996.601
996.604
996.606
996.609
996.611
996.614
996.617
996.62
996.622
996.625
996.628
996.63
996.633
996.635
996.638
996.64
996.643
996.645
996.647
996.649
996.651
996.653
996.654
996.656
996.657
996.659
996.66
996.661
996.662
996.663
996.663
996.664
996.664
996.664
996.664
996.664
996.663
996.662
996.661
996.66
996.658
996.6
996.599
996.599
996.6
996.6
996.601
996.602
996.604
996.605
996.607
996.609
996.611
996.613
996.616
996.618
996.621
996.623
996.625
996.628
996.63
996.633
996.635
996.637
996.639
996.642
996.644
996.646
996.648
996.649
996.651
996.653
996.654
996.656
996.657
996.658
996.659
996.66
996.661
996.662
996.662
996.662
996.663
996.663
996.662
996.662
996.661
996.66
996.659
996.658
996.656
996.609
996.608
996.608
996.608
996.608
996.608
996.609
996.61
996.611
996.613
996.615
996.616
996.618
996.62
996.622
996.624
996.626
996.628
996.631
996.633
996.635
996.637
996.639
996.641
996.643
996.645
996.646
996.648
996.65
996.651
996.653
996.654
996.656
996.657
996.658
996.659
996.66
996.66
996.661
996.661
996.661
996.662
996.661
996.661
996.661
996.66
996.659
996.658
996.656
996.654
996.619
996.617
996.616
996.616
996.616
996.616
996.616
996.617
996.618
996.619
996.62
996.621
996.623
996.624
996.626
996.628
996.63
996.631
996.633
996.635
996.637
996.639
996.641
996.642
996.644
996.646
996.647
996.649
996.65
996.652
996.653
996.654
996.656
996.657
996.658
996.658
996.659
996.66
996.66
996.66
996.661
996.661
996.66
996.66
996.659
996.659
996.658
996.656
996.655
996.653
996.627
996.625
996.624
996.623
996.623
996.623
996.623
996.623
996.623
996.624
996.625
996.626
996.627
996.629
996.63
996.631
996.633
996.635
996.636
996.638
996.639
996.641
996.642
996.644
996.646
996.647
996.648
996.65
996.651
996.652
996.654
996.655
996.656
996.657
996.657
996.658
996.659
996.659
996.659
996.66
996.66
996.66
996.659
996.659
996.658
996.658
996.657
996.655
996.654
996.652
996.635
996.633
996.632
996.631
996.63
996.629
996.629
996.629
996.629
996.629
996.63
996.631
996.632
996.633
996.634
996.635
996.636
996.638
996.639
996.64
996.642
996.643
996.644
996.646
996.647
996.648
996.65
996.651
996.652
996.653
996.654
996.655
996.656
996.657
996.657
996.658
996.658
996.659
996.659
996.659
996.659
996.659
996.659
996.658
996.658
996.657
996.656
996.654
996.653
996.651
996.643
996.64
996.639
996.637
996.636
996.635
996.635
996.635
996.635
996.635
996.635
996.635
996.636
996.637
996.638
996.638
996.639
996.64
996.642
996.643
996.644
996.645
996.646
996.647
996.648
996.65
996.651
996.652
996.653
996.654
996.655
996.655
996.656
996.657
996.657
996.658
996.658
996.658
996.659
996.659
996.659
996.658
996.658
996.657
996.657
996.656
996.655
996.654
996.652
996.651
996.65
996.647
996.645
996.644
996.643
996.641
996.641
996.64
996.64
996.64
996.64
996.64
996.64
996.641
996.641
996.642
996.643
996.643
996.644
996.645
996.646
996.647
996.648
996.649
996.65
996.651
996.652
996.653
996.654
996.654
996.655
996.656
996.656
996.657
996.657
996.658
996.658
996.658
996.658
996.658
996.658
996.658
996.658
996.657
996.656
996.655
996.654
996.653
996.652
996.65
996.657
996.653
996.652
996.65
996.648
996.647
996.646
996.645
996.645
996.644
996.644
996.644
996.644
996.644
996.645
996.645
996.646
996.646
996.647
996.648
996.648
996.649
996.65
996.651
996.651
996.652
996.653
996.654
996.654
996.655
996.656
996.656
996.657
996.657
996.658
996.658
996.658
996.658
996.658
996.658
996.658
996.658
996.657
996.657
996.656
996.655
996.654
996.653
996.652
996.65
996.663
996.66
996.658
996.656
996.654
996.652
996.651
996.65
996.649
996.649
996.648
996.648
996.648
996.648
996.648
996.648
996.649
996.649
996.649
996.65
996.65
996.651
996.652
996.652
996.653
996.654
996.654
996.655
996.655
996.656
996.656
996.657
996.657
996.657
996.658
996.658
996.658
996.658
996.658
996.658
996.658
996.657
996.657
996.656
996.656
996.655
996.654
996.653
996.651
996.65
996.669
996.665
996.663
996.661
996.659
996.658
996.656
996.655
996.654
996.653
996.652
996.652
996.652
996.651
996.651
996.651
996.651
996.652
996.652
996.652
996.653
996.653
996.653
996.654
996.654
996.655
996.655
996.656
996.656
996.657
996.657
996.657
996.658
996.658
996.658
996.658
996.658
996.658
996.658
996.658
996.658
996.657
996.657
996.656
996.655
996.655
996.654
996.653
996.651
996.65
996.674
996.671
996.669
996.666
996.664
996.662
996.661
996.659
996.658
996.657
996.656
996.656
996.655
996.655
996.654
996.654
996.654
996.654
996.654
996.655
996.655
996.655
996.655
996.656
996.656
996.656
996.657
996.657
996.657
996.657
996.658
996.658
996.658
996.658
996.658
996.658
996.658
996.658
996.658
996.658
996.658
996.657
996.657
996.656
996.655
996.655
996.654
996.653
996.652
996.65
996.679
996.676
996.673
996.671
996.669
996.667
996.665
996.664
996.662
996.661
996.66
996.659
996.658
996.658
996.658
996.657
996.657
996.657
996.657
996.657
996.657
996.657
996.657
996.657
996.657
996.658
996.658
996.658
996.658
996.658
996.658
996.659
996.659
996.659
996.659
996.659
996.659
996.659
996.658
996.658
996.658
996.657
996.657
996.656
996.656
996.655
996.654
996.653
996.652
996.651
996.684
996.68
996.678
996.675
996.673
996.671
996.669
996.667
996.666
996.665
996.664
996.663
996.662
996.661
996.66
996.66
996.66
996.659
996.659
996.659
996.659
996.659
996.659
996.659
996.659
996.659
996.659
996.659
996.659
996.659
996.659
996.659
996.659
996.659
996.659
996.659
996.659
996.659
996.659
996.658
996.658
996.657
996.657
996.656
996.656
996.655
996.654
996.653
996.652
996.651
996.688
996.685
996.682
996.68
996.677
996.675
996.673
996.671
996.67
996.668
996.667
996.666
996.665
996.664
996.663
996.663
996.662
996.662
996.661
996.661
996.661
996.661
996.66
996.66
996.66
996.66
996.66
996.66
996.66
996.66
996.66
996.66
996.66
996.66
996.66
996.66
996.659
996.659
996.659
996.658
996.658
996.658
996.657
996.657
996.656
996.655
996.654
996.654
996.653
996.652
996.692
996.689
996.686
996.683
996.681
996.679
996.677
996.675
996.673
996.671
996.67
996.669
996.668
996.667
996.666