/*--------------------------------*- C++ -*----------------------------------*\
  =========                 |
  \\      /  F ield         | OpenFOAM: The Open Source CFD Toolbox
   \\    /   O peration     | Website:  https://openfoam.org
    \\  /    A nd           | Version:  6
     \\/     M anipulation  |
\*---------------------------------------------------------------------------*/
FoamFile
{
    version     2.0;
    format      ascii;
    class       surfaceScalarField;
    location    "1.2";
    object      phi;
}
// * * * * * * * * * * * * * * * * * * * * * * * * * * * * * * * * * * * * * //

dimensions      [0 3 -1 0 0 0 0];

internalField   nonuniform List<scalar> 
11030
(
0.000119647
4.51165e-07
0.000119734
-8.72872e-08
0.00011955
1.84445e-07
0.000119089
4.60981e-07
0.000118667
4.21744e-07
0.000118284
3.82984e-07
0.000117857
4.26749e-07
0.000117359
4.97832e-07
0.000116786
5.73104e-07
0.000116128
6.58153e-07
0.00011537
7.58148e-07
0.000114496
8.7429e-07
0.000113488
1.00767e-06
0.000112328
1.16032e-06
0.000110993
1.33474e-06
0.00010946
1.53347e-06
0.000107701
1.75831e-06
0.000105693
2.00876e-06
0.000103414
2.27881e-06
2.54732e-06
0.000100866
0.000120451
8.1131e-08
0.000120082
2.81087e-07
0.000119505
7.61359e-07
0.000119044
9.22128e-07
0.000118623
8.42903e-07
0.000118171
8.35063e-07
0.00011767
9.28303e-07
0.00011711
1.0573e-06
0.00011648
1.20321e-06
0.000115764
1.3741e-06
0.000114947
1.57564e-06
0.000114011
1.80971e-06
0.00011294
2.0788e-06
0.000111713
2.38692e-06
0.000110309
2.73887e-06
0.000108703
3.13944e-06
0.000106869
3.59209e-06
0.000104783
4.09561e-06
0.000102424
4.63779e-06
5.18078e-06
9.97902e-05
0.000120064
3.11645e-08
0.000119899
4.4596e-07
0.000119462
1.19845e-06
0.000118979
1.40522e-06
0.000118516
1.30577e-06
0.000118029
1.32215e-06
0.000117487
1.46975e-06
0.000116881
1.66324e-06
0.000116201
1.88388e-06
0.000115431
2.14349e-06
0.000114558
2.44909e-06
0.000113564
2.80325e-06
0.000112433
3.20979e-06
0.000111146
3.67457e-06
0.00010968
4.20454e-06
0.000108013
4.80668e-06
0.000106119
5.48602e-06
0.000103974
6.24076e-06
0.000101558
7.05308e-06
7.87111e-06
9.8868e-05
0.000119898
6.90926e-08
0.000119703
6.40614e-07
0.000119296
1.60556e-06
0.000118828
1.87353e-06
0.000118359
1.77409e-06
0.000117857
1.82491e-06
0.000117291
2.03569e-06
0.000116652
2.30217e-06
0.000115931
2.60447e-06
0.000115116
2.95809e-06
0.000114194
3.37157e-06
0.000113149
3.84823e-06
0.000111966
4.39314e-06
0.000110626
5.01392e-06
0.000109111
5.71952e-06
0.000107399
6.51893e-06
0.000105466
7.41863e-06
0.000103291
8.41635e-06
0.000100855
9.48893e-06
1.05728e-05
9.81533e-05
0.00011974
1.81211e-07
0.000119496
8.85195e-07
0.000119096
2.00495e-06
0.000118643
2.32631e-06
0.000118179
2.23832e-06
0.000117669
2.33505e-06
0.000117086
2.61902e-06
0.00011642
2.96765e-06
0.000115665
3.35945e-06
0.00011481
3.81303e-06
0.000113844
4.33826e-06
0.000112753
4.93905e-06
0.000111524
5.62162e-06
0.000110143
6.39517e-06
0.000108592
7.27039e-06
0.000106853
8.25801e-06
0.000104906
9.36577e-06
0.000102731
1.05908e-05
0.000100315
1.19049e-05
1.3235e-05
9.76532e-05
0.000119563
3.8125e-07
0.000119267
1.18086e-06
0.000118886
2.38636e-06
0.000118457
2.75471e-06
0.000118002
2.69386e-06
0.000117486
2.8511e-06
0.000116884
3.22011e-06
0.000116191
3.66104e-06
0.0001154
4.15043e-06
0.000114504
4.7095e-06
0.000113493
5.34915e-06
0.000112358
6.07383e-06
0.000111089
6.89074e-06
0.000109674
7.81045e-06
0.000108099
8.84512e-06
0.00010635
1.00068e-05
0.000104412
1.13042e-05
0.000102269
1.27339e-05
9.99105e-05
1.4263e-05
1.58115e-05
9.73341e-05
0.000119321
7.261e-07
0.000118983
1.51889e-06
0.000118674
2.69548e-06
0.000118296
3.13341e-06
0.000117849
3.14056e-06
0.000117321
3.37936e-06
0.000116694
3.84709e-06
0.000115963
4.39167e-06
0.000115127
4.98648e-06
0.000114182
5.65493e-06
0.000113121
6.40924e-06
0.000111941
7.25454e-06
0.000110632
8.19903e-06
0.000109188
9.25444e-06
0.0001076
1.0434e-05
0.000105856
1.17506e-05
0.000103946
1.32136e-05
0.000101861
1.48192e-05
9.95928e-05
1.65312e-05
1.82659e-05
9.71384e-05
0.000118895
1.39424e-06
0.000118562
1.85275e-06
0.000118475
2.78201e-06
0.000118188
3.42067e-06
0.000117734
3.59445e-06
0.000117175
3.93823e-06
0.000116505
4.5169e-06
0.00011572
5.17684e-06
0.000114823
5.88312e-06
0.000113817
6.6614e-06
0.000112699
7.52673e-06
0.000111468
8.48553e-06
0.00011012
9.54697e-06
0.000108651
1.07236e-05
0.000107056
1.20293e-05
0.000105329
1.34773e-05
0.000103466
1.50772e-05
0.00010146
1.68253e-05
9.93063e-05
1.86845e-05
2.05758e-05
9.69964e-05
0.000117853
3.00497e-06
0.000117928
1.77814e-06
0.000118403
2.30702e-06
0.000118184
3.63871e-06
0.000117654
4.1245e-06
0.00011703
4.56286e-06
0.00011629
5.25635e-06
0.000115426
6.04147e-06
0.000114449
6.86016e-06
0.000113367
7.74302e-06
0.000112183
8.71108e-06
0.000110896
9.77256e-06
0.000109505
1.09372e-05
0.000108011
1.22179e-05
0.000106412
1.36281e-05
0.000104709
1.51804e-05
0.000102902
1.68842e-05
0.00010099
1.87372e-05
9.89713e-05
2.07036e-05
2.27041e-05
9.6843e-05
0.000116014
6.42695e-06
0.000117821
-2.86606e-08
0.000118788
1.33984e-06
0.000118314
4.11282e-06
0.0001176
4.8388e-06
0.000116858
5.30444e-06
0.000116007
6.10761e-06
0.000115036
7.0119e-06
0.000113965
7.9316e-06
0.000112801
8.90713e-06
0.000111546
9.966e-06
0.000110201
1.11175e-05
0.000108767
1.23711e-05
0.000107247
1.37386e-05
0.000105643
1.52318e-05
0.000103962
1.6861e-05
0.000102214
1.86324e-05
0.000100407
2.0544e-05
9.85296e-05
2.25811e-05
9.6564e-05
2.46697e-05
9.02781e-05
1.05884e-05
7.95432e-05
1.07348e-05
6.86468e-05
1.08965e-05
5.75823e-05
1.10645e-05
4.63624e-05
1.12199e-05
3.50582e-05
1.13042e-05
2.38834e-05
1.11748e-05
1.33605e-05
1.05228e-05
4.59978e-06
8.76076e-06
4.59978e-06
8.92826e-05
2.10959e-05
7.86242e-05
2.13933e-05
6.78084e-05
2.17123e-05
5.68314e-05
2.20415e-05
4.57096e-05
2.23417e-05
3.4519e-05
2.24948e-05
2.34757e-05
2.22181e-05
1.30998e-05
2.08988e-05
4.53785e-06
1.73227e-05
9.13763e-06
8.84313e-05
3.15326e-05
7.78417e-05
3.19829e-05
6.70984e-05
3.24556e-05
5.61995e-05
3.29403e-05
4.51635e-05
3.33777e-05
3.40695e-05
3.35887e-05
2.31381e-05
3.31495e-05
1.28928e-05
3.11441e-05
4.45392e-06
2.57616e-05
1.35916e-05
8.77656e-05
4.19203e-05
7.72263e-05
4.25222e-05
6.65387e-05
4.31432e-05
5.5701e-05
4.3778e-05
4.4732e-05
4.43468e-05
3.37127e-05
4.4608e-05
2.28672e-05
4.3995e-05
1.27218e-05
4.12895e-05
4.38551e-06
3.40979e-05
1.79771e-05
8.72933e-05
5.22802e-05
7.67835e-05
5.30321e-05
6.61315e-05
5.37952e-05
5.53342e-05
5.45752e-05
4.44091e-05
5.52718e-05
3.3439e-05
5.55782e-05
2.26518e-05
5.47821e-05
1.25793e-05
5.1362e-05
4.32573e-06
4.23515e-05
2.23028e-05
8.6985e-05
6.26293e-05
7.64863e-05
6.35307e-05
6.58511e-05
6.44304e-05
5.50732e-05
6.53532e-05
4.41684e-05
6.61766e-05
3.32219e-05
6.65247e-05
2.2468e-05
6.5536e-05
1.24473e-05
6.13827e-05
4.26523e-06
5.05335e-05
2.6568e-05
8.67853e-05
7.29824e-05
7.62823e-05
7.40337e-05
6.56474e-05
7.50653e-05
5.48686e-05
7.6132e-05
4.39616e-05
7.70837e-05
3.30159e-05
7.74704e-05
2.22764e-05
7.62755e-05
1.22973e-05
7.13618e-05
4.18976e-06
5.86411e-05
3.07578e-05
8.66179e-05
8.33609e-05
7.60941e-05
8.45575e-05
6.5444e-05
8.57153e-05
5.46449e-05
8.69311e-05
4.37157e-05
8.80129e-05
3.27548e-05
8.84312e-05
2.20226e-05
8.70078e-05
1.20917e-05
8.12927e-05
4.08071e-06
6.66521e-05
3.48385e-05
8.63691e-05
9.38348e-05
7.58029e-05
9.51238e-05
6.51198e-05
9.63984e-05
5.42836e-05
9.77672e-05
4.33236e-05
9.8973e-05
3.23491e-05
9.94057e-05
2.16385e-05
9.77184e-05
1.17831e-05
9.1148e-05
3.91201e-06
7.45233e-05
3.87505e-05
8.57833e-05
0.000104616
7.51881e-05
0.000105719
6.4457e-05
0.00010713
5.35911e-05
0.000108633
4.26272e-05
0.000109937
3.16791e-05
0.000110354
2.10376e-05
0.00010836
1.13051e-05
0.000100881
3.63111e-06
8.21972e-05
4.23816e-05
3.29641e-05
0.000110262
-3.86103e-05
2.73475e-05
0.000111336
2.18175e-05
0.000112659
1.64226e-05
0.000114028
1.13133e-05
0.000115046
6.75565e-06
0.000114911
3.12076e-06
0.000111995
7.90916e-07
0.00010321
-8.41507e-08
8.30723e-05
4.22975e-05
2.67581e-05
0.000115332
-3.1828e-05
2.16724e-05
0.000116421
1.66815e-05
0.00011765
1.1898e-05
0.000118811
7.4915e-06
0.000119453
3.72782e-06
0.000118675
9.4914e-07
0.000114773
-5.2403e-07
0.000104684
-6.33076e-07
8.31813e-05
4.16644e-05
2.05676e-05
0.000119858
-2.50938e-05
1.60338e-05
0.000120955
1.16239e-05
0.00012206
7.48024e-06
0.000122955
3.79708e-06
0.000123136
8.42339e-07
0.00012163
-1.07026e-06
0.000116686
-1.68761e-06
0.000105301
-1.06191e-06
8.25556e-05
4.06025e-05
1.44549e-05
0.000123849
-1.84459e-05
1.04924e-05
0.000124918
6.69048e-06
0.000125862
3.21276e-06
0.000126433
2.71935e-07
0.000126077
-1.86498e-06
0.000123767
-2.91602e-06
0.000117737
-2.70287e-06
0.000105088
-1.40395e-06
8.12567e-05
3.91985e-05
8.46672e-06
0.000127304
-1.19217e-05
5.08523e-06
0.000128299
1.91179e-06
0.000129036
-8.76907e-07
0.000129222
-3.05814e-06
0.000128258
-4.37298e-06
0.000125082
-4.57833e-06
0.000117942
-3.57725e-06
0.000104087
-1.67488e-06
7.93543e-05
3.75236e-05
2.63392e-06
0.00013022
-5.55039e-06
-1.58558e-07
0.000131092
-2.68765e-06
0.000131565
-4.76884e-06
0.000131303
-6.17763e-06
0.000129667
-6.67171e-06
0.000125576
-6.05511e-06
0.000117326
-4.31726e-06
0.000102349
-1.88339e-06
7.69205e-05
3.56403e-05
-3.02282e-06
0.000132594
6.49622e-07
-5.21792e-06
0.000133287
-7.08888e-06
0.000133436
-8.44777e-06
0.000132662
-9.07594e-06
0.000130295
-8.75645e-06
0.000125256
-7.34845e-06
0.000115918
-4.93062e-06
9.9931e-05
-2.03768e-06
7.40275e-05
3.36026e-05
-8.49175e-06
0.000134417
6.66864e-06
-1.00791e-05
0.000134874
-1.12782e-05
0.000134635
-1.19019e-05
0.000133285
-1.17448e-05
0.000130138
-1.0624e-05
0.000124135
-8.46129e-06
0.000113755
-5.42507e-06
9.68948e-05
-2.14513e-06
7.07476e-05
3.14574e-05
-1.37666e-05
0.000135681
1.25026e-05
-1.47321e-05
0.00013584
-1.52422e-05
0.000135145
-1.51161e-05
0.000133159
-1.41701e-05
0.000129192
-1.22651e-05
0.00012223
-9.39241e-06
0.000110882
-5.80741e-06
9.33098e-05
-2.21351e-06
6.71537e-05
2.92439e-05
-1.88375e-05
1.81562e-05
0.000136362
-1.91502e-05
0.000136152
-1.89404e-05
0.000134935
-1.80431e-05
0.000132262
-1.6307e-05
0.000127456
-1.36484e-05
0.000119572
-1.01321e-05
0.000107366
-6.08786e-06
8.92656e-05
-2.26009e-06
6.33259e-05
2.69839e-05
8.47822e-05
-3.92121e-05
-8.41804e-05
8.56089e-05
-3.26546e-05
8.66336e-05
-2.61186e-05
8.77993e-05
-1.96116e-05
8.90648e-05
-1.31872e-05
9.03822e-05
-6.86781e-06
9.17006e-05
-6.68837e-07
9.29695e-05
5.39976e-06
9.41412e-05
1.13309e-05
1.71369e-05
9.51606e-05
8.55717e-05
-3.96349e-05
-8.51489e-05
8.61861e-05
-3.3269e-05
8.69985e-05
-2.6931e-05
8.79662e-05
-2.05793e-05
8.90512e-05
-1.42722e-05
9.02129e-05
-8.02947e-06
9.14077e-05
-1.86367e-06
9.25924e-05
4.21508e-06
9.37252e-05
1.0198e-05
1.61014e-05
9.47607e-05
8.62375e-05
-3.98502e-05
-8.60222e-05
8.66625e-05
-3.3694e-05
8.72809e-05
-2.75493e-05
8.80622e-05
-2.13607e-05
8.89741e-05
-1.5184e-05
8.99821e-05
-9.03755e-06
9.10505e-05
-2.93199e-06
9.21429e-05
3.1226e-06
9.32243e-05
9.11664e-06
1.50674e-05
9.42583e-05
8.68088e-05
-3.99125e-05
-8.67464e-05
8.70701e-05
-3.39553e-05
8.75152e-05
-2.79944e-05
8.81239e-05
-2.19694e-05
8.88707e-05
-1.59309e-05
8.97287e-05
-9.89549e-06
9.0669e-05
-3.87234e-06
9.16627e-05
2.12891e-06
9.26807e-05
8.09863e-06
1.40536e-05
9.36945e-05
8.72792e-05
-3.98532e-05
-8.73385e-05
8.74032e-05
-3.40793e-05
8.76982e-05
-2.82895e-05
8.81529e-05
-2.2424e-05
8.87488e-05
-1.65268e-05
8.94657e-05
-1.06124e-05
9.02818e-05
-4.68846e-06
9.11746e-05
1.23606e-06
9.21211e-05
7.15211e-06
1.30756e-05
9.30991e-05
8.76498e-05
-3.96877e-05
-8.78153e-05
8.76557e-05
-3.40852e-05
8.7822e-05
-2.84558e-05
8.81427e-05
-2.27447e-05
8.8605e-05
-1.69891e-05
8.91944e-05
-1.12018e-05
8.98949e-05
-5.38899e-06
9.06899e-05
4.41145e-07
9.15615e-05
6.28046e-06
1.2144e-05
9.24931e-05
8.79293e-05
-3.94273e-05
-8.81896e-05
8.7832e-05
-3.3988e-05
8.78873e-05
-2.85112e-05
8.80924e-05
-2.29497e-05
8.84383e-05
-1.73351e-05
8.89148e-05
-1.16782e-05
8.95105e-05
-5.98475e-06
9.02136e-05
-2.61869e-07
9.10108e-05
5.48323e-06
1.1265e-05
9.18899e-05
8.81285e-05
-3.90822e-05
-8.84736e-05
8.79403e-05
-3.37998e-05
8.78994e-05
-2.84703e-05
8.80045e-05
-2.30548e-05
8.82494e-05
-1.758e-05
8.86269e-05
-1.20557e-05
8.91291e-05
-6.48699e-06
8.97478e-05
-8.80505e-07
9.04735e-05
4.75748e-06
1.04407e-05
9.12977e-05
8.82585e-05
-3.86614e-05
-8.86793e-05
8.79899e-05
-3.35312e-05
8.78649e-05
-2.83453e-05
8.78832e-05
-2.3073e-05
8.80403e-05
-1.77372e-05
8.83313e-05
-1.23466e-05
8.87507e-05
-6.90641e-06
8.92929e-05
-1.42275e-06
8.99516e-05
4.09876e-06
9.67129e-06
9.07211e-05
8.83294e-05
-3.8173e-05
-8.88178e-05
8.79895e-05
-3.31913e-05
8.77908e-05
-2.81466e-05
8.77332e-05
-2.30155e-05
8.78138e-05
-1.78177e-05
8.8029e-05
-1.25618e-05
8.83752e-05
-7.25265e-06
8.88488e-05
-1.89636e-06
8.94456e-05
3.50197e-06
8.95478e-06
9.01621e-05
8.8351e-05
-3.76243e-05
-8.88996e-05
8.79477e-05
-3.2788e-05
8.76838e-05
-2.78826e-05
8.75596e-05
-2.28913e-05
8.7573e-05
-1.78312e-05
8.77216e-05
-1.27104e-05
8.80032e-05
-7.53418e-06
8.84153e-05
-2.30848e-06
8.89554e-05
2.96185e-06
8.28848e-06
8.96217e-05
8.83315e-05
-3.70218e-05
-8.89341e-05
8.78718e-05
-3.23283e-05
8.75501e-05
-2.75609e-05
8.7367e-05
-2.27082e-05
8.73213e-05
-1.77854e-05
8.74111e-05
-1.28003e-05
8.76352e-05
-7.75829e-06
8.79922e-05
-2.66551e-06
8.84807e-05
2.47339e-06
7.6692e-06
8.91e-05
8.82787e-05
-3.63712e-05
-8.89293e-05
8.77686e-05
-3.18182e-05
8.73955e-05
-2.71878e-05
8.71601e-05
-2.24728e-05
8.70617e-05
-1.7687e-05
8.70993e-05
-1.28379e-05
8.72722e-05
-7.93119e-06
8.75797e-05
-2.97302e-06
8.80212e-05
2.03196e-06
7.09363e-06
8.85967e-05
8.81989e-05
-3.56776e-05
-8.88925e-05
8.76438e-05
-3.12632e-05
8.72247e-05
-2.67686e-05
8.69426e-05
-2.21907e-05
8.67973e-05
-1.75417e-05
8.67883e-05
-1.28289e-05
8.69152e-05
-8.05818e-06
8.71781e-05
-3.23588e-06
8.75767e-05
1.6334e-06
6.55858e-06
8.81117e-05
8.80976e-05
-3.49454e-05
-8.88298e-05
8.75022e-05
-3.06677e-05
8.70419e-05
-2.63084e-05
8.6718e-05
-2.18668e-05
8.65306e-05
-1.73543e-05
8.64797e-05
-1.27779e-05
8.65653e-05
-8.14382e-06
8.67877e-05
-3.45828e-06
8.71471e-05
1.27401e-06
6.06102e-06
8.76447e-05
8.79797e-05
-3.41785e-05
-8.87466e-05
8.73481e-05
-3.00361e-05
8.68508e-05
-2.58111e-05
8.64892e-05
-2.15053e-05
8.62639e-05
-1.7129e-05
8.61752e-05
-1.26892e-05
8.62234e-05
-8.19202e-06
8.6409e-05
-3.64387e-06
8.67325e-05
9.50507e-07
5.59821e-06
8.71953e-05
8.78491e-05
-3.33805e-05
-8.86471e-05
8.71848e-05
-2.93718e-05
8.66542e-05
-2.52804e-05
8.62587e-05
-2.11098e-05
8.59991e-05
-1.68695e-05
8.58761e-05
-1.25661e-05
8.58903e-05
-8.20616e-06
8.60422e-05
-3.79585e-06
8.63328e-05
6.59995e-07
5.1676e-06
8.67634e-05
8.77091e-05
-3.25544e-05
-8.85352e-05
8.70154e-05
-2.86781e-05
8.64546e-05
-2.47196e-05
8.60285e-05
-2.06836e-05
8.57379e-05
-1.65789e-05
8.55837e-05
-1.2412e-05
8.55668e-05
-8.18925e-06
8.56879e-05
-3.91702e-06
8.5948e-05
3.9989e-07
4.76691e-06
8.63487e-05
8.75625e-05
-3.17029e-05
-8.8414e-05
8.68422e-05
-2.79579e-05
8.62542e-05
-2.41316e-05
8.58002e-05
-2.02296e-05
8.54813e-05
-1.626e-05
8.52988e-05
-1.22294e-05
8.52534e-05
-8.14389e-06
8.53463e-05
-4.00987e-06
8.55783e-05
1.67883e-07
4.39404e-06
8.59511e-05
8.74115e-05
-3.08284e-05
-8.8286e-05
8.66673e-05
-2.72137e-05
8.60546e-05
-2.35189e-05
8.55752e-05
-1.97502e-05
8.52307e-05
-1.59155e-05
8.50221e-05
-1.20208e-05
8.49507e-05
-8.07246e-06
8.50174e-05
-4.07662e-06
8.52234e-05
-3.81071e-08
4.04709e-06
8.55704e-05
8.72582e-05
-2.99333e-05
-8.81534e-05
8.64923e-05
-2.64477e-05
8.58571e-05
-2.28837e-05
8.53547e-05
-1.92479e-05
8.49867e-05
-1.55474e-05
8.47544e-05
-1.17885e-05
8.46589e-05
-7.97704e-06
8.47016e-05
-4.11929e-06
8.48835e-05
-2.19967e-07
3.72431e-06
8.52063e-05
8.71042e-05
-2.90193e-05
-8.80181e-05
8.63185e-05
-2.5662e-05
8.56629e-05
-2.22282e-05
8.51396e-05
-1.87245e-05
8.47501e-05
-1.5158e-05
8.44959e-05
-1.15343e-05
8.43784e-05
-7.85954e-06
8.43988e-05
-4.13968e-06
8.45583e-05
-3.79418e-07
3.42408e-06
8.48585e-05
8.69507e-05
-2.80884e-05
-8.78816e-05
8.61471e-05
-2.48584e-05
8.5473e-05
-2.15541e-05
8.49305e-05
-1.8182e-05
8.45213e-05
-1.47488e-05
8.42471e-05
-1.12601e-05
8.41092e-05
-7.72167e-06
8.4109e-05
-4.13945e-06
8.42476e-05
-5.18038e-07
3.1449e-06
8.45268e-05
8.67989e-05
-2.7142e-05
-8.77453e-05
8.5979e-05
-2.40386e-05
8.5288e-05
-2.0863e-05
8.4728e-05
-1.7622e-05
8.43008e-05
-1.43217e-05
8.40082e-05
-1.09674e-05
8.38515e-05
-7.56501e-06
8.38322e-05
-4.12012e-06
8.39514e-05
-6.37286e-07
2.88538e-06
8.42109e-05
8.66497e-05
-2.61815e-05
-8.76101e-05
8.5815e-05
-2.32039e-05
8.51086e-05
-2.01566e-05
8.45326e-05
-1.7046e-05
8.40889e-05
-1.3878e-05
8.37792e-05
-1.06578e-05
8.36052e-05
-7.39099e-06
8.35682e-05
-4.08308e-06
8.36694e-05
-7.38504e-07
2.64423e-06
8.39106e-05
8.65039e-05
-2.52084e-05
-8.7477e-05
8.56558e-05
-2.23558e-05
8.49352e-05
-1.94361e-05
8.43446e-05
-1.64553e-05
8.38857e-05
-1.34191e-05
8.35604e-05
-1.03325e-05
8.33703e-05
-7.20092e-06
8.33169e-05
-4.02961e-06
8.34013e-05
-8.22942e-07
2.42024e-06
8.36253e-05
8.63621e-05
-2.42237e-05
-8.73468e-05
8.55017e-05
-2.14955e-05
8.47683e-05
-1.87027e-05
8.41642e-05
-1.58512e-05
8.36914e-05
-1.29463e-05
8.33517e-05
-9.99283e-06
8.31468e-05
-6.99599e-06
8.30781e-05
-3.9609e-06
8.31469e-05
-8.91758e-07
2.21226e-06
8.33549e-05
8.62249e-05
-2.32285e-05
-8.72201e-05
8.53534e-05
-2.0624e-05
8.46082e-05
-1.79575e-05
8.39917e-05
-1.52347e-05
8.35061e-05
-1.24606e-05
8.31531e-05
-9.63984e-06
8.29345e-05
-6.77734e-06
8.28516e-05
-3.87804e-06
8.29059e-05
-9.46036e-07
2.01925e-06
8.30989e-05
8.60926e-05
-2.22237e-05
-8.70974e-05
8.52109e-05
-1.97423e-05
8.4455e-05
-1.72016e-05
8.38273e-05
-1.4607e-05
8.33298e-05
-1.19632e-05
8.29646e-05
-9.27459e-06
8.27332e-05
-6.54597e-06
8.26372e-05
-3.78206e-06
8.2678e-05
-9.86783e-07
1.84019e-06
8.2857e-05
8.59658e-05
-2.12102e-05
-8.69792e-05
8.50748e-05
-1.88513e-05
8.4309e-05
-1.64358e-05
8.36709e-05
-1.39689e-05
8.31626e-05
-1.14549e-05
8.2786e-05
-8.89801e-06
8.25429e-05
-6.30284e-06
8.24347e-05
-3.6739e-06
8.24629e-05
-1.01494e-06
1.67415e-06
8.26289e-05
8.58445e-05
-2.01889e-05
-8.68659e-05
8.49451e-05
-1.79519e-05
8.41703e-05
-1.56611e-05
8.35227e-05
-1.33213e-05
8.30044e-05
-1.09366e-05
8.26174e-05
-8.51098e-06
8.23634e-05
-6.04884e-06
8.22439e-05
-3.55443e-06
8.22603e-05
-1.0314e-06
1.52023e-06
8.24143e-05
8.57291e-05
-1.91603e-05
-8.67576e-05
8.48219e-05
-1.70447e-05
8.4039e-05
-1.48781e-05
8.33826e-05
-1.26649e-05
8.28551e-05
-1.04091e-05
8.24585e-05
-8.11432e-06
8.21944e-05
-5.78477e-06
8.20645e-05
-3.4245e-06
8.20701e-05
-1.03697e-06
1.37762e-06
8.22127e-05
8.56197e-05
-1.81253e-05
-8.66548e-05
8.47056e-05
-1.61305e-05
8.39151e-05
-1.40876e-05
8.32508e-05
-1.20006e-05
8.27148e-05
-9.87312e-06
8.23093e-05
-7.70877e-06
8.20359e-05
-5.51139e-06
8.18963e-05
-3.28485e-06
8.18917e-05
-1.03245e-06
1.24551e-06
8.20238e-05
8.55166e-05
-1.70843e-05
-8.65575e-05
8.4596e-05
-1.521e-05
8.37987e-05
-1.32903e-05
8.3127e-05
-1.1329e-05
8.25833e-05
-9.32941e-06
8.21696e-05
-7.29504e-06
8.18876e-05
-5.22943e-06
8.1739e-05
-3.13623e-06
8.17251e-05
-1.01857e-06
1.12317e-06
8.18474e-05
8.54197e-05
-1.60381e-05
-8.64659e-05
8.44933e-05
-1.42836e-05
8.36897e-05
-1.24867e-05
8.30114e-05
-1.06506e-05
8.24605e-05
-8.77858e-06
8.20393e-05
-6.87377e-06
8.17494e-05
-4.93953e-06
8.15924e-05
-2.9793e-06
8.15699e-05
-9.96008e-07
1.00988e-06
8.16832e-05
8.53291e-05
-1.4987e-05
-8.63802e-05
8.43975e-05
-1.3352e-05
8.35882e-05
-1.16774e-05
8.29038e-05
-9.96614e-06
8.23464e-05
-8.22122e-06
8.19182e-05
-6.44557e-06
8.1621e-05
-4.64233e-06
8.14564e-05
-2.8147e-06
8.14258e-05
-9.65425e-07
9.04977e-07
8.15307e-05
8.5245e-05
-1.39316e-05
-8.63004e-05
8.43087e-05
-1.24157e-05
8.34942e-05
-1.08629e-05
8.28041e-05
-9.27609e-06
8.22408e-05
-7.65788e-06
8.18063e-05
-6.01103e-06
8.15023e-05
-4.33842e-06
8.13307e-05
-2.64304e-06
8.12927e-05
-9.27439e-07
8.07823e-07
8.13899e-05
8.51673e-05
-1.28723e-05
-8.62266e-05
8.42267e-05
-1.14751e-05
8.34075e-05
-1.00438e-05
8.27124e-05
-8.58096e-06
8.21436e-05
-7.08909e-06
8.17033e-05
-5.57066e-06
8.13932e-05
-4.02835e-06
8.1215e-05
-2.46488e-06
8.11702e-05
-8.82639e-07
7.17811e-07
8.12602e-05
8.5096e-05
-1.18096e-05
-8.61588e-05
8.41516e-05
-1.05306e-05
8.33282e-05
-9.22039e-06
8.26285e-05
-7.88123e-06
8.20547e-05
-6.51534e-06
8.1609e-05
-5.125e-06
8.12933e-05
-3.71264e-06
8.11092e-05
-2.28077e-06
8.10582e-05
-8.31584e-07
6.34359e-07
8.11416e-05
8.50311e-05
-1.07438e-05
-8.60969e-05
8.40832e-05
-9.58271e-06
8.32561e-05
-8.39323e-06
8.25522e-05
-7.17736e-06
8.1974e-05
-5.9371e-06
8.15235e-05
-4.67451e-06
8.12027e-05
-3.3918e-06
8.10131e-05
-2.09123e-06
8.09563e-05
-7.7481e-07
5.56908e-07
8.10338e-05
8.49726e-05
-9.67538e-06
-8.6041e-05
8.40217e-05
-8.6318e-06
8.31911e-05
-7.5627e-06
8.24836e-05
-6.46978e-06
8.19013e-05
-5.35482e-06
8.14465e-05
-4.21967e-06
8.1121e-05
-3.0663e-06
8.09265e-05
-1.89675e-06
8.08645e-05
-7.12834e-07
4.84922e-07
8.09365e-05
8.49203e-05
-8.60463e-06
-8.59911e-05
8.39668e-05
-7.67827e-06
8.31333e-05
-6.7292e-06
8.24224e-05
-5.75891e-06
8.18365e-05
-4.76894e-06
8.13778e-05
-3.76092e-06
8.10481e-05
-2.73661e-06
8.08491e-05
-1.69782e-06
8.07825e-05
-6.46152e-07
4.17882e-07
8.08495e-05
8.48742e-05
-7.53194e-06
-8.59469e-05
8.39184e-05
-6.72249e-06
8.30824e-05
-5.89314e-06
8.23686e-05
-5.04515e-06
8.17795e-05
-4.17986e-06
8.13173e-05
-3.2987e-06
8.09839e-05
-2.40318e-06
8.07809e-05
-1.49489e-06
8.071e-05
-5.75247e-07
3.55281e-07
8.07726e-05
8.48342e-05
-6.4577e-06
-8.59085e-05
8.38766e-05
-5.76484e-06
8.30383e-05
-5.05489e-06
8.23221e-05
-4.3289e-06
8.17302e-05
-3.588e-06
8.12649e-05
-2.83341e-06
8.09282e-05
-2.06642e-06
8.07217e-05
-1.28841e-06
8.06471e-05
-5.0059e-07
2.96624e-07
8.07057e-05
8.48003e-05
-5.38227e-06
-8.58757e-05
8.38411e-05
-4.80569e-06
8.30011e-05
-4.21483e-06
8.22827e-05
-3.61054e-06
8.16885e-05
-2.99374e-06
8.12205e-05
-2.36546e-06
8.08809e-05
-1.72678e-06
8.06713e-05
-1.07883e-06
8.05934e-05
-4.22646e-07
2.41422e-07
8.06486e-05
8.47723e-05
-4.30603e-06
-8.58485e-05
8.3812e-05
-3.84542e-06
8.29705e-05
-3.37334e-06
8.22504e-05
-2.89044e-06
8.16541e-05
-2.39748e-06
8.1184e-05
-1.89526e-06
8.08418e-05
-1.38466e-06
8.06296e-05
-8.66594e-07
8.05488e-05
-3.41876e-07
1.8919e-07
8.06011e-05
8.47501e-05
-3.22934e-06
-8.58268e-05
8.37891e-05
-2.88439e-06
8.29465e-05
-2.53077e-06
8.2225e-05
-2.16898e-06
8.16272e-05
-1.79959e-06
8.11551e-05
-1.42321e-06
8.08109e-05
-1.04049e-06
8.05965e-05
-6.52132e-07
8.05133e-05
-2.58744e-07
1.39437e-07
8.05631e-05
8.47338e-05
-2.15257e-06
-8.58105e-05
8.37723e-05
-1.92293e-06
8.2929e-05
-1.68747e-06
8.22065e-05
-1.44651e-06
8.16074e-05
-1.20045e-06
8.11339e-05
-9.49698e-07
8.07881e-05
-6.94691e-07
8.05718e-05
-4.35895e-07
8.04868e-05
-1.73721e-07
9.16653e-08
8.05346e-05
8.47231e-05
-1.07602e-06
-8.57997e-05
8.37616e-05
-9.61374e-07
8.29179e-05
-8.43769e-07
8.21948e-05
-7.23393e-07
8.15947e-05
-6.00449e-07
8.11202e-05
-4.75145e-07
8.07732e-05
-3.47702e-07
8.05557e-05
-2.18351e-07
8.04692e-05
-8.72994e-08
4.53637e-08
8.05155e-05
8.47181e-05
-8.57942e-05
8.37568e-05
8.2913e-05
8.21896e-05
8.15891e-05
8.1114e-05
8.07663e-05
8.0548e-05
8.04607e-05
8.0506e-05
8.47079e-05
4.13954e-06
8.34734e-05
1.2058e-06
8.28812e-05
1.93201e-06
8.30971e-05
3.89694e-06
8.31571e-05
4.77881e-06
8.30513e-05
5.41027e-06
8.29324e-05
6.2265e-06
8.28193e-05
7.12495e-06
8.26991e-05
8.05189e-06
8.25745e-05
9.03172e-06
8.24553e-05
1.00852e-05
8.23511e-05
1.12217e-05
8.22724e-05
1.24498e-05
8.22317e-05
1.37792e-05
8.22447e-05
1.52189e-05
8.233e-05
1.67757e-05
8.2511e-05
1.84514e-05
8.28201e-05
2.02349e-05
8.33242e-05
2.2077e-05
2.38135e-05
8.43223e-05
2.33759e-06
8.36562e-05
1.87192e-06
8.3156e-05
2.43219e-06
8.32364e-05
3.81648e-06
8.32728e-05
4.74249e-06
8.32005e-05
5.48255e-06
8.31175e-05
6.30954e-06
8.3042e-05
7.20038e-06
8.29669e-05
8.12697e-06
8.28953e-05
9.10341e-06
8.28356e-05
1.01448e-05
8.27974e-05
1.12599e-05
8.27913e-05
1.2456e-05
8.28299e-05
1.37406e-05
8.2929e-05
1.51199e-05
8.31074e-05
1.65972e-05
8.33888e-05
1.81701e-05
8.38025e-05
1.98212e-05
8.43847e-05
2.14948e-05
2.30493e-05
8.34141e-05
1.4861e-06
8.33582e-05
1.92788e-06
8.31575e-05
2.63289e-06
8.32112e-05
3.76272e-06
8.32657e-05
4.68799e-06
8.32534e-05
5.49492e-06
8.3224e-05
6.33888e-06
8.31969e-05
7.22749e-06
8.31727e-05
8.15119e-06
8.31561e-05
9.12001e-06
8.31555e-05
1.01454e-05
8.31804e-05
1.1235e-05
8.32413e-05
1.2395e-05
8.33509e-05
1.3631e-05
8.3524e-05
1.49467e-05
8.37784e-05
1.63429e-05
8.41344e-05
1.78141e-05
8.46145e-05
1.93411e-05
8.5239e-05
2.08703e-05
2.22661e-05
8.29991e-05
1.07384e-06
8.30592e-05
1.86776e-06
8.30279e-05
2.66413e-06
8.31133e-05
3.67739e-06
8.31998e-05
4.60148e-06
8.32434e-05
5.45132e-06
8.32698e-05
6.31246e-06
8.32948e-05
7.20252e-06
8.33232e-05
8.12272e-06
8.33615e-05
9.08176e-06
8.3418e-05
1.00889e-05
8.35023e-05
1.11507e-05
8.36248e-05
1.22725e-05
8.37975e-05
1.34582e-05
8.40344e-05
1.47098e-05
8.43511e-05
1.60262e-05
8.47651e-05
1.74001e-05
8.52939e-05
1.88123e-05
8.59521e-05
2.02121e-05
2.14718e-05
8.27914e-05
8.8714e-07
8.28661e-05
1.7931e-06
8.29093e-05
2.62094e-06
8.30119e-05
3.57472e-06
8.31201e-05
4.49326e-06
8.32058e-05
5.36563e-06
8.32797e-05
6.23856e-06
8.33525e-05
7.12973e-06
8.34302e-05
8.04501e-06
8.35197e-05
8.99232e-06
8.36291e-05
9.97944e-06
8.37676e-05
1.10122e-05
8.39454e-05
1.20948e-05
8.41735e-05
1.32301e-05
8.44647e-05
1.44186e-05
8.48328e-05
1.56581e-05
8.52924e-05
1.69405e-05
8.58577e-05
1.8247e-05
8.65391e-05
1.95307e-05
2.06724e-05
8.27002e-05
8.06843e-07
8.2763e-05
1.73033e-06
8.28294e-05
2.55449e-06
8.29352e-05
3.46897e-06
8.30535e-05
4.37495e-06
8.31659e-05
5.25322e-06
8.3275e-05
6.12949e-06
8.33868e-05
7.0179e-06
8.35067e-05
7.92514e-06
8.36408e-05
8.85817e-06
8.37968e-05
9.82348e-06
8.3983e-05
1.0826e-05
8.42087e-05
1.18691e-05
8.44843e-05
1.29545e-05
8.4821e-05
1.4082e-05
8.52307e-05
1.52483e-05
8.57258e-05
1.64454e-05
8.63178e-05
1.76551e-05
8.70143e-05
1.88341e-05
1.98713e-05
8.26695e-05
7.71298e-07
8.27184e-05
1.68147e-06
8.27871e-05
2.48572e-06
8.2889e-05
3.36712e-06
8.30096e-05
4.25436e-06
8.31367e-05
5.12609e-06
8.32694e-05
5.99682e-06
8.34105e-05
6.87678e-06
8.35639e-05
7.7717e-06
8.37349e-05
8.68722e-06
8.39298e-05
9.62856e-06
8.41562e-05
1.05996e-05
8.44223e-05
1.1603e-05
8.47372e-05
1.26395e-05
8.51109e-05
1.37083e-05
8.55536e-05
1.48056e-05
8.60756e-05
1.59234e-05
8.66861e-05
1.70445e-05
8.73912e-05
1.81291e-05
1.90729e-05
8.26668e-05
7.52219e-07
8.27072e-05
1.64106e-06
8.27728e-05
2.42008e-06
8.28691e-05
3.27087e-06
8.29882e-05
4.13521e-06
8.31225e-05
4.99178e-06
8.327e-05
5.84935e-06
8.34317e-05
6.71502e-06
8.36104e-05
7.59301e-06
8.38101e-05
8.48753e-06
8.40362e-05
9.40251e-06
8.42949e-05
1.03409e-05
8.45936e-05
1.13043e-05
8.49401e-05
1.2293e-05
8.53429e-05
1.33055e-05
8.58106e-05
1.43379e-05
8.6352e-05
1.53821e-05
8.69743e-05
1.64222e-05
8.76823e-05
1.74211e-05
1.82816e-05
8.26758e-05
7.37618e-07
8.27131e-05
1.60378e-06
8.2776e-05
2.35721e-06
8.28677e-05
3.17913e-06
8.29846e-05
4.01831e-06
8.31222e-05
4.85424e-06
8.32786e-05
5.69291e-06
8.34544e-05
6.53927e-06
8.36513e-05
7.39611e-06
8.38725e-05
8.26633e-06
8.41223e-05
9.15266e-06
8.44061e-05
1.00571e-05
8.473e-05
1.09804e-05
8.51006e-05
1.19224e-05
8.55251e-05
1.2881e-05
8.60109e-05
1.38521e-05
8.65649e-05
1.48281e-05
8.71931e-05
1.57939e-05
8.78989e-05
1.67153e-05
1.75013e-05
8.26893e-05
7.22878e-07
8.27268e-05
1.56637e-06
8.27886e-05
2.29537e-06
8.28778e-05
3.08993e-06
8.29931e-05
3.90298e-06
8.31323e-05
4.71507e-06
8.32942e-05
5.53095e-06
8.34793e-05
6.35421e-06
8.36889e-05
7.18651e-06
8.39256e-05
8.02965e-06
8.41929e-05
8.88538e-06
8.44952e-05
9.75478e-06
8.48375e-05
1.06381e-05
8.52256e-05
1.15343e-05
8.56653e-05
1.24413e-05
8.61627e-05
1.33547e-05
8.67235e-05
1.42673e-05
8.73525e-05
1.5165e-05
8.80518e-05
1.60159e-05
1.67352e-05
8.2704e-05
7.06566e-07
8.27431e-05
1.52728e-06
8.28054e-05
2.2331e-06
8.28939e-05
3.00146e-06
8.30087e-05
3.78813e-06
8.31491e-05
4.57472e-06
8.33146e-05
5.36539e-06
8.35059e-05
6.16295e-06
8.37241e-05
6.96825e-06
8.39715e-05
7.78227e-06
8.4251e-05
8.60592e-06
8.45662e-05
9.43961e-06
8.49213e-05
1.0283e-05
8.5321e-05
1.11346e-05
8.57701e-05
1.19921e-05
8.62737e-05
1.28512e-05
8.68363e-05
1.37047e-05
8.74615e-05
1.45397e-05
8.81507e-05
1.53267e-05
1.59863e-05
8.27186e-05
6.88524e-07
8.27598e-05
1.48605e-06
8.28234e-05
2.16951e-06
8.29124e-05
2.91249e-06
8.30277e-05
3.67287e-06
8.31692e-05
4.43315e-06
8.33373e-05
5.19727e-06
8.35328e-05
5.96753e-06
8.37568e-05
6.74425e-06
8.40112e-05
7.52779e-06
8.42987e-05
8.31847e-06
8.46222e-05
9.11612e-06
8.49852e-05
9.91993e-06
8.53916e-05
1.07282e-05
8.58454e-05
1.15384e-05
8.63505e-05
1.2346e-05
8.69105e-05
1.31446e-05
8.75283e-05
1.3922e-05
8.82044e-05
1.46506e-05
1.52567e-05
8.27326e-05
6.69019e-07
8.27759e-05
1.44278e-06
8.28411e-05
2.10427e-06
8.29312e-05
2.82237e-06
8.30475e-05
3.55663e-06
8.31903e-05
4.29033e-06
8.33603e-05
5.02724e-06
8.35585e-05
5.76936e-06
8.37861e-05
6.51661e-06
8.4045e-05
7.26896e-06
8.43372e-05
8.02626e-06
8.46654e-05
8.78796e-06
8.50324e-05
9.55289e-06
8.54415e-05
1.03192e-05
8.58958e-05
1.1084e-05
8.63987e-05
1.18432e-05
8.69527e-05
1.25906e-05
8.75601e-05
1.33146e-05
8.82206e-05
1.399e-05
1.4548e-05
8.27459e-05
6.48409e-07
8.27909e-05
1.39779e-06
8.28577e-05
2.03743e-06
8.29492e-05
2.7309e-06
8.30666e-05
3.43921e-06
8.32106e-05
4.14632e-06
8.33821e-05
4.8558e-06
8.3582e-05
5.56943e-06
8.38117e-05
6.28689e-06
8.40728e-05
7.00784e-06
8.43673e-05
7.73181e-06
8.46973e-05
8.45796e-06
8.50653e-05
9.18491e-06
8.54738e-05
9.91061e-06
8.59256e-05
1.06322e-05
8.6423e-05
1.13458e-05
8.69683e-05
1.20453e-05
8.75628e-05
1.27201e-05
8.8206e-05
1.33469e-05
1.38615e-05
8.27585e-05
6.2702e-07
8.28048e-05
1.35148e-06
8.2873e-05
1.96922e-06
8.29657e-05
2.63819e-06
8.30842e-05
3.32072e-06
8.32292e-05
4.00133e-06
8.34016e-05
4.68343e-06
8.36024e-05
5.36858e-06
8.3833e-05
6.0563e-06
8.40948e-05
6.74601e-06
8.43896e-05
7.43705e-06
8.47192e-05
8.12836e-06
8.50857e-05
8.81842e-06
8.54912e-05
9.50511e-06
8.59378e-05
1.01856e-05
8.64275e-05
1.08561e-05
8.69619e-05
1.15109e-05
8.75418e-05
1.21403e-05
8.81662e-05
1.27224e-05
1.31979e-05
8.27704e-05
6.05118e-07
8.28176e-05
1.30424e-06