/*--------------------------------*- C++ -*----------------------------------*\
  =========                 |
  \\      /  F ield         | OpenFOAM: The Open Source CFD Toolbox
   \\    /   O peration     | Website:  https://openfoam.org
    \\  /    A nd           | Version:  6
     \\/     M anipulation  |
\*---------------------------------------------------------------------------*/
FoamFile
{
    version     2.0;
    format      ascii;
    class       volVectorField;
    location    "1.2";
    object      U;
}
// * * * * * * * * * * * * * * * * * * * * * * * * * * * * * * * * * * * * * //

dimensions      [0 1 -1 0 0 0 0];

internalField   nonuniform List<vector> 
5600
(
(2.05686 0.00627089 3.73591e-19)
(1.25125 0.00708043 -6.42528e-18)
(0.969466 0.00628303 6.41098e-18)
(1.01421 0.00474409 0)
(1.05005 0.00409719 0)
(1.04525 0.00436338 0)
(1.03449 0.00482645 -1.19631e-17)
(1.02722 0.00525778 1.1936e-17)
(1.02072 0.00573979 0)
(1.01333 0.00632791 0)
(1.00498 0.00702255 0)
(0.995762 0.0078232 0)
(0.985555 0.00874132 0)
(0.9742 0.00979332 -2.35525e-17)
(0.961527 0.0109968 2.34997e-17)
(0.947354 0.0123695 -4.68956e-17)
(0.931479 0.0139246 4.6791e-17)
(0.913692 0.0156594 0)
(0.893785 0.017532 -3.63944e-19)
(0.871594 0.0194046 0)
(2.07083 0.0111936 -3.68383e-19)
(1.2449 0.0147802 6.33645e-18)
(0.968981 0.0147971 -6.32469e-18)
(1.01789 0.013227 0)
(1.05263 0.012586 0)
(1.04677 0.0131958 2.44233e-17)
(1.0359 0.0142427 3.35902e-22)
(1.0287 0.0154207 -7.37103e-19)
(1.02222 0.0168144 1.45619e-22)
(1.01485 0.0184957 -2.3504e-17)
(1.00657 0.0204758 0)
(0.997451 0.0227676 -4.75627e-17)
(0.987379 0.0254025 4.67423e-17)
(0.976196 0.0284234 0)
(0.96374 0.0318781 0)
(0.949841 0.035815 0)
(0.934306 0.0402694 0)
(0.916935 0.0452298 -4.63068e-17)
(0.897526 0.0505728 4.6581e-17)
(0.875824 0.0559429 4.54432e-17)
(2.08758 0.0120113 0)
(1.24213 0.0223846 0)
(0.966862 0.0244598 0)
(1.01958 0.0218715 0)
(1.05481 0.0208668 2.34043e-17)
(1.04871 0.0219138 -2.40999e-17)
(1.03801 0.0235865 -1.45846e-18)
(1.0311 0.025476 -7.28156e-19)
(1.02485 0.0277468 2.32668e-17)
(1.0177 0.0305015 -2.17804e-17)
(1.00967 0.0337522 -1.4499e-18)
(1.00083 0.0375193 4.70529e-17)
(0.991106 0.0418522 -4.77064e-17)
(0.980333 0.0468173 1.44354e-18)
(0.968374 0.0524896 4.61261e-17)
(0.955079 0.0589446 -9.35563e-17)
(0.940277 0.0662371 -1.43784e-18)
(0.923783 0.0743464 4.59241e-17)
(0.905399 0.0830703 -1.43304e-18)
(0.884794 0.0918475 -7.15846e-19)
(2.10811 0.0144593 0)
(1.24086 0.0287309 -1.44268e-18)
(0.96403 0.0321307 0)
(1.02041 0.029202 0)
(1.05677 0.0282513 0)
(1.05086 0.029889 0)
(1.04058 0.0322889 1.437e-18)
(1.03419 0.0349714 2.44053e-17)
(1.02841 0.0381721 -2.29471e-17)
(1.0217 0.0420267 -1.4328e-18)
(1.01413 0.0465524 2.8628e-18)
(1.00581 0.0517788 0)
(0.996664 0.057773 -4.42869e-17)
(0.986571 0.0646231 4.42433e-17)
(0.975418 0.0724287 4.56264e-17)
(0.963091 0.0812905 -4.55814e-17)
(0.949449 0.0912812 9.24979e-17)
(0.934336 0.102375 -9.09849e-17)
(0.917576 0.114298 1.42027e-18)
(0.898789 0.126309 1.41945e-18)
(2.13209 0.0171493 -5.5974e-18)
(1.23961 0.0341092 7.06975e-18)
(0.96074 0.0383144 -1.13268e-17)
(1.02118 0.0352199 -1.13203e-17)
(1.05888 0.0345202 2.2633e-17)
(1.05332 0.0368506 2.26221e-17)
(1.04362 0.0400605 -2.26126e-17)
(1.03794 0.0436146 1.41271e-18)
(1.03281 0.047803 1.41212e-18)
(1.02672 0.0527855 4.51693e-17)
(1.01981 0.0585829 -9.03006e-17)
(1.01221 0.0652332 1.41003e-18)
(1.00387 0.0728191 4.65219e-17)
(0.994712 0.0814479 1.40916e-18)
(0.984664 0.0912403 -4.36658e-17)
(0.973655 0.102317 4.78708e-17)
(0.96159 0.114768 1.40736e-18)
(0.948349 0.12856 0)
(0.933801 0.143355 1.40616e-18)
(0.917548 0.15825 1.40594e-18)
(2.15911 0.0196805 5.47737e-18)
(1.23793 0.0386386 -5.53487e-18)
(0.957056 0.0431986 1.38675e-18)
(1.0222 0.0398805 0)
(1.0614 0.0395378 2.21931e-17)
(1.05623 0.0426637 -2.21977e-17)
(1.04723 0.0467673 1.38765e-18)
(1.04237 0.051265 -4.71902e-17)
(1.03801 0.0564913 -2.77662e-18)
(1.03267 0.062619 8.88646e-17)
(1.02654 0.0696674 -4.72187e-17)
(1.01982 0.0776812 -1.38907e-18)
(1.01247 0.0867559 -4.72377e-17)
(1.00447 0.0970142 -4.58577e-17)
(0.995786 0.108593 8.75624e-17)
(0.986406 0.121628 8.61898e-17)
(0.976286 0.136219 -9.03768e-17)
(0.965352 0.152329 8.76133e-17)
(0.953529 0.169561 -1.79431e-16)
(0.940429 0.186863 8.76586e-17)
(2.18869 0.0222128 0)
(1.23518 0.0421859 0)
(0.952845 0.0464613 -1.35581e-18)
(1.02367 0.0429561 2.17097e-17)
(1.06454 0.0431961 -2.17289e-17)
(1.05973 0.0472755 -1.35915e-18)
(1.05145 0.0523743 -1.36037e-18)
(1.04746 0.0578884 1.36158e-18)
(1.04391 0.0641906 1.36278e-18)
(1.03937 0.0714578 0)
(1.03411 0.0797058 4.50509e-17)
(1.02836 0.0889851 2.14744e-22)
(1.02215 0.0994024 -4.23947e-17)
(1.01547 0.111092 -8.62329e-17)
(1.00837 0.124202 1.75356e-16)
(1.00087 0.138876 -8.63832e-17)
(0.992992 0.155221 8.78314e-17)
(0.984717 0.173195 -8.65337e-17)
(0.976025 0.192354 -8.7984e-17)
(0.966558 0.211527 8.6687e-17)
(2.22015 0.0260287 0)
(1.22986 0.0442388 1.31989e-18)
(0.947748 0.047163 -2.11748e-17)
(1.02591 0.0441774 2.25344e-17)
(1.0685 0.045529 -2.12392e-17)
(1.06382 0.0507436 2.39326e-17)
(1.05622 0.0569455 0)
(1.05308 0.0635492 1.33389e-18)
(1.05031 0.0709401 0)
(1.04656 0.0792989 -1.33819e-18)
(1.04221 0.0886458 4.28915e-17)
(1.0375 0.0990403 -4.29606e-17)
(1.03252 0.1106 -8.60602e-17)
(1.02729 0.123467 8.4852e-17)
(1.02192 0.137793 0)
(1.01649 0.153727 0)
(1.01108 0.171375 8.66172e-17)
(1.00572 0.190699 1.96862e-22)
(1.00045 0.21123 -8.68966e-17)
(0.99496 0.231747 8.83898e-17)
(2.2529 0.0367199 -4.44508e-18)
(1.21798 0.0417962 4.49449e-18)
(0.941973 0.0420171 0)
(1.0301 0.0432033 -1.93948e-18)
(1.07349 0.0469616 -2.0734e-17)
(1.0683 0.0533425 -2.20824e-17)
(1.06129 0.0607137 8.33322e-17)
(1.05895 0.0685034 -4.30709e-17)
(1.05688 0.0769809 -4.18657e-17)
(1.05388 0.0863486 4.32773e-17)
(1.05043 0.0966643 -8.41333e-17)
(1.04681 0.108005 1.68671e-16)
(1.04312 0.120494 1.89066e-22)
(1.03944 0.134276 -8.47418e-17)
(1.0359 0.149498 0)
(1.03265 0.166301 8.51513e-17)
(1.02984 0.18479 -1.70714e-16)
(1.02756 0.204939 8.55634e-17)
(1.02594 0.226294 0)
(1.02472 0.247599 0)
(2.28835 0.0602095 -5.55146e-18)
(1.19017 0.0263302 4.36834e-18)
(0.940384 0.0263292 0)
(1.04074 0.040722 2.07684e-17)
(1.07965 0.0487733 -2.02032e-17)
(1.07247 0.0557256 -4.05326e-17)
(1.06629 0.0640882 -3.20999e-22)
(1.06473 0.073119 8.15855e-17)
(1.0632 0.0826387 -8.18473e-17)
(1.06092 0.0928937 4.10552e-17)
(1.05841 0.104044 -8.23752e-17)
(1.05593 0.116194 8.26411e-17)
(1.05358 0.129463 -8.29086e-17)
(1.05149 0.143985 8.31774e-17)
(1.04982 0.159894 8.34477e-17)
(1.04877 0.177304 -8.37194e-17)
(1.04856 0.196299 0)
(1.04939 0.216882 -8.42664e-17)
(1.0515 0.238764 8.45426e-17)
(1.05468 0.260736 8.47951e-17)
(0.843736 0.0210399 0)
(0.805892 0.0232909 0)
(0.760426 0.0258755 4.23698e-17)
(0.705237 0.0288501 -2.29982e-17)
(0.637505 0.0322263 -2.51489e-17)
(0.553622 0.0358518 4.16049e-17)
(0.449718 0.0391593 -1.5452e-17)
(0.32202 0.0407688 3.487e-17)
(0.169052 0.0378825 0)
(0.0473929 0.0215407 0)
(0.84864 0.0609532 -1.83843e-17)
(0.811513 0.0678069 -5.92563e-17)
(0.766763 0.0757097 -2.13119e-17)
(0.712449 0.0848287 2.31355e-17)
(0.64575 0.0952042 2.5295e-17)
(0.563014 0.106367 -5.57838e-17)
(0.460241 0.11661 4.66013e-17)
(0.333399 0.1217 -8.75892e-17)
(0.179944 0.112788 -1.00307e-17)
(0.0538485 0.06435 6.41281e-17)
(0.859009 0.100066 1.84602e-17)
(0.823214 0.111345 -1.9834e-17)
(0.779856 0.124386 4.28024e-17)
(0.727245 0.139433 4.64706e-17)
(0.662551 0.156553 -5.08174e-17)
(0.582035 0.174955 -2.80208e-17)
(0.481436 0.191814 3.12198e-17)
(0.356056 0.200081 -5.28201e-17)
(0.2016 0.184803 8.06788e-17)
(0.0667704 0.105613 -1.5247e-16)
(0.875164 0.137524 3.69468e-17)
(0.841219 0.153049 0)
(0.799819 0.171 0)
(0.749628 0.191667 -4.65056e-17)
(0.687785 0.215138 5.08555e-17)
(0.610417 0.2403 2.11081e-21)
(0.512869 0.263221 0)
(0.389435 0.274144 7.04902e-17)
(0.233414 0.252422 -6.05605e-17)
(0.085747 0.144084 1.87828e-16)
(0.896777 0.172056 -3.68515e-17)
(0.865129 0.191501 0)
(0.826177 0.214016 8.54285e-17)
(0.77903 0.239878 0)
(0.720766 0.269199 5.06993e-17)
(0.647331 0.300537 5.59085e-17)
(0.553564 0.32888 0)
(0.432464 0.3419 1.40478e-16)
(0.274293 0.313783 -2.01118e-17)
(0.110063 0.178607 -7.01502e-17)
(0.923078 0.202738 1.99956e-21)
(0.894106 0.225667 -1.57396e-16)
(0.858018 0.25229 -2.66744e-21)
(0.814444 0.282818 0)
(0.76036 0.317376 -5.03669e-17)
(0.691488 0.354194 -5.55206e-17)
(0.60207 0.38721 0)
(0.483576 0.401684 -1.39399e-16)
(0.322703 0.367237 -1.59536e-16)
(0.138744 0.208189 2.3171e-17)
(0.953032 0.228931 7.41103e-22)
(0.927015 0.254859 1.09796e-21)
(0.894125 0.285077 1.68174e-16)
(0.85454 0.319683 -1.27315e-21)
(0.805086 0.358802 -9.96997e-17)
(0.741232 0.400318 -1.09859e-16)
(0.656542 0.437141 -3.05687e-17)
(0.540789 0.452302 3.44366e-17)
(0.376722 0.411541 1.18148e-16)
(0.170569 0.232038 2.28532e-16)
(0.985476 0.250287 -1.76895e-21)
(0.962518 0.278768 7.69941e-17)
(0.933044 0.312067 -1.66024e-16)
(0.897733 0.350162 -4.5025e-17)
(0.853179 0.393146 2.45865e-16)
(0.7946 0.438527 1.08312e-16)
(0.714842 0.478206 -1.20458e-16)
(0.601872 0.493189 0)
(0.434242 0.44607 3.87251e-17)
(0.204165 0.249709 -4.03986e-16)
(1.01923 0.266896 -1.22328e-21)
(0.998902 0.297485 -7.58011e-17)
(0.972889 0.333419 4.00678e-21)
(0.941994 0.374489 -8.85793e-17)
(0.90249 0.420711 9.66878e-17)
(0.849418 0.469182 5.3211e-17)
(0.774875 0.510813 5.91402e-17)
(0.664871 0.524788 -3.3249e-17)
(0.493417 0.471224 3.79329e-17)
(0.23818 0.261297 1.75635e-16)
(1.05226 0.280384 -6.93469e-17)
(1.03345 0.312599 -7.44038e-17)
(1.01107 0.350793 8.01575e-17)
(0.984753 0.394355 8.68577e-17)
(0.950582 0.443083 -1.89538e-16)
(0.903483 0.493565 0)
(0.834602 0.535743 0)
(0.727596 0.547346 -3.25008e-17)
(0.551556 0.486952 3.70297e-17)
(0.270533 0.266559 0)
(1.08222 0.301214 6.78209e-17)
(1.06403 0.334486 7.2846e-17)
(1.04523 0.373037 0)
(1.02282 0.416821 -8.52035e-17)
(0.993176 0.464805 0)
(0.950815 0.512772 -1.02514e-16)
(0.885749 0.55006 -5.70196e-17)
(0.779522 0.554508 -6.41891e-17)
(0.59795 0.48628 -1.46702e-16)
(0.29542 0.261926 1.70189e-16)
(1.11409 0.319837 1.62106e-21)
(1.09957 0.353736 -1.4815e-16)
(1.08436 0.391835 2.23759e-21)
(1.0655 0.434584 8.66839e-17)
(1.03936 0.480021 0)
(0.999742 0.52305 1.04366e-16)
(0.935383 0.552538 0)
(0.826116 0.546962 1.30835e-16)
(0.636129 0.469464 1.55835e-20)
(0.313736 0.247098 -1.73677e-16)
(1.14722 0.334363 6.99397e-17)
(1.13686 0.367829 -7.51391e-17)
(1.12515 0.404759 2.43157e-16)
(1.10941 0.445437 -8.79642e-17)
(1.08585 0.487127 -9.614e-17)
(1.04752 0.524006 -5.29832e-17)
(0.982009 0.544675 2.46222e-21)
(0.867845 0.528553 6.6483e-17)
(0.668387 0.442277 2.66234e-16)
(0.32744 0.226277 4.41859e-17)
(1.18138 0.343923 -1.41545e-16)
(1.17486 0.376229 0)
(1.16629 0.411231 -4.59257e-21)
(1.15304 0.448823 8.90481e-17)
(1.13102 0.485663 2.43386e-16)
(1.09253 0.51543 5.36623e-17)
(1.02422 0.526753 1.19536e-16)
(0.903673 0.500385 -1.01085e-16)
(0.694011 0.406928 -1.92897e-16)
(0.336409 0.201426 1.79379e-16)
(1.21584 0.348197 7.14429e-17)
(1.21261 0.378668 7.67609e-17)
(1.20655 0.410994 -1.6566e-16)
(1.19491 0.444572 -4.49652e-17)
(1.17313 0.47559 -1.96659e-16)
(1.13285 0.497457 -1.62649e-16)
(1.05993 0.499154 -2.41603e-16)
(0.931475 0.463224 1.36265e-16)
(0.711178 0.364742 0)
(0.339998 0.173796 -2.04242e-16)
(1.24961 0.346983 1.07898e-16)
(1.24896 0.374998 0)
(1.24455 0.40397 0)
(1.23338 0.432753 0)
(1.21038 0.457212 0)
(1.16653 0.470703 1.09248e-16)
(1.08721 0.462886 1.21736e-16)
(0.949556 0.418496 0)
(0.718737 0.317472 0)
(0.337995 0.144674 -9.15646e-17)
(1.28163 0.340303 -3.61191e-17)
(1.28267 0.365323 -8.87502e-22)
(1.27884 0.39036 -4.18852e-17)
(1.26684 0.413748 4.54806e-17)
(1.241 0.43118 -4.97436e-17)
(1.19184 0.436184 1.37184e-16)
(1.10452 0.419397 -3.05787e-17)
(0.956812 0.368059 6.90122e-17)
(0.716248 0.267128 -1.97742e-17)
(0.330591 0.115332 9.20743e-17)
(1.31081 0.328417 7.2352e-17)
(1.31252 0.350004 -3.88713e-17)
(1.30805 0.370653 0)
(1.29374 0.388246 -4.55568e-17)
(1.26345 0.398465 0)
(1.20734 0.395228 -5.49691e-17)
(1.11076 0.370402 -3.06307e-17)
(0.952712 0.313942 3.4568e-17)
(0.70386 0.215735 0)
(0.318271 0.0869201 -1.15323e-17)
(1.33614 0.311783 -5.42039e-17)
(1.33738 0.329631 3.88275e-17)
(1.33098 0.345581 0)
(1.31293 0.357173 0)
(1.27667 0.360253 4.9767e-17)
(1.2123 0.349329 -2.74511e-17)
(1.1057 0.317717 -3.0593e-17)
(0.937634 0.258186 -6.90545e-17)
(0.682455 0.165231 3.95734e-17)
(0.301802 0.0604465 -5.18218e-17)
(1.35694 0.291037 5.40017e-17)
(1.35667 0.304855 -5.82846e-22)
(1.34713 0.315807 -2.08707e-17)
(1.32396 0.321252 0)
(1.28035 0.317405 -2.47843e-17)
(1.20658 0.299593 -1.3668e-17)
(1.08947 0.262782 3.80807e-17)
(0.912017 0.20254 8.59383e-18)
(0.652722 0.117379 -4.43164e-17)
(0.281706 0.0367774 5.15736e-17)
(1.09675 0.27708 -4.17495e-16)
(1.12616 0.293865 1.03271e-16)
(1.15609 0.307395 0)
(1.18693 0.316713 1.0215e-16)
(1.21831 0.321547 -3.41257e-23)
(1.24931 0.32171 -1.56177e-18)
(1.27904 0.317166 7.76919e-19)
(1.3066 0.308072 -4.99012e-17)
(1.33112 0.294751 4.97438e-17)
(1.35186 0.277769 -2.46252e-17)
(1.10731 0.264594 2.08207e-16)
(1.1344 0.278651 0)
(1.16183 0.290131 0)
(1.19002 0.298164 1.00415e-16)
(1.2189 0.302442 1.56996e-18)
(1.24762 0.302793 -7.80182e-19)
(1.27542 0.299168 7.76226e-19)
(1.30151 0.291668 4.87047e-17)
(1.32519 0.280524 -4.93253e-17)
(1.34563 0.266256 2.46101e-17)
(1.11736 0.254051 0)
(1.14184 0.265853 -1.02907e-16)
(1.16676 0.275267 1.01974e-16)
(1.19238 0.281847 -1.01168e-16)
(1.21878 0.285313 0)
(1.24521 0.285514 -7.80486e-19)
(1.27101 0.282399 -9.86436e-17)
(1.29554 0.276038 0)
(1.3182 0.266602 0)
(1.33813 0.254552 -2.46377e-17)
(1.12622 0.243841 0)
(1.14851 0.253636 1.1966e-21)
(1.17114 0.261282 -1.01891e-16)
(1.19437 0.266585 1.0113e-16)
(1.21838 0.269307 7.84985e-19)
(1.24256 0.269319 -1.00713e-16)
(1.26635 0.266577 -2.7238e-22)
(1.28922 0.261125 0)
(1.31072 0.253091 0)
(1.32996 0.242871 0)
(1.13353 0.233859 -1.03511e-16)
(1.15399 0.24201 2.05269e-16)
(1.17465 0.248214 7.95355e-19)
(1.19579 0.252436 -1.01882e-16)
(1.21764 0.254495 -7.84994e-19)
(1.23974 0.254293 -9.99664e-17)
(1.26161 0.251801 1.50092e-16)
(1.28284 0.247051 -3.87518e-19)
(1.30309 0.240141 -4.90891e-17)
(1.3215 0.231408 -2.46938e-17)
(1.13939 0.224069 2.06633e-16)
(1.15822 0.230918 -1.02499e-16)
(1.17718 0.23598 1.01723e-16)
(1.19652 0.239323 1.00264e-16)
(1.21649 0.24082 1.02052e-16)
(1.23671 0.240409 9.92193e-17)
(1.25684 0.23808 -4.98022e-17)
(1.27652 0.233864 -3.87844e-19)
(1.29551 0.227841 3.86621e-19)
(1.31301 0.220304 2.47215e-17)
(1.14394 0.214468 -1.03525e-16)
(1.16132 0.220264 -1.01962e-16)
(1.17879 0.224428 -1.0164e-16)
(1.19658 0.227075 -1.01016e-16)
(1.21491 0.228125 -9.9698e-17)
(1.23349 0.227542 9.84717e-17)
(1.25204 0.225333 -4.90544e-17)
(1.2703 0.221533 0)
(1.28809 0.216217 9.91514e-17)
(1.30465 0.209642 0)
(1.14734 0.205074 0)
(1.16343 0.210006 1.02227e-16)
(1.17958 0.213459 -1.01556e-16)
(1.19602 0.215565 7.88881e-19)
(1.21293 0.216272 -1.02054e-16)
(1.23008 0.215563 -1.00069e-16)
(1.24723 0.21346 5.06429e-17)
(1.26419 0.21 -4.97282e-17)
(1.28085 0.205256 -9.92518e-17)
(1.2965 0.199462 0)
(1.14974 0.195911 -1.02734e-16)
(1.16466 0.20013 0)
(1.17966 0.203018 1.01474e-16)
(1.19491 0.204705 1.01728e-16)
(1.21059 0.205156 1.26597e-22)
(1.22648 0.204367 9.93208e-17)
(1.24241 0.202368 0)
(1.25821 0.199198 4.97699e-17)
(1.27382 0.194929 4.98701e-17)
(1.28859 0.189778 -2.49997e-17)
(1.15128 0.187 1.02542e-16)
(1.16517 0.190631 -1.01957e-16)
(1.17913 0.193067 1.0139e-16)
(1.19334 0.194429 -1.00114e-16)
(1.20793 0.194694 1.99402e-16)
(1.22272 0.193865 -9.85723e-17)
(1.23757 0.191972 -7.80091e-19)
(1.25233 0.189058 -3.89152e-19)
(1.26699 0.185193 -4.93381e-17)
(1.28095 0.18058 2.48339e-17)
(1.15211 0.178358 0)
(1.16506 0.181502 1.01823e-16)
(1.17809 0.183577 -1.01308e-16)
(1.19138 0.184688 -7.87993e-19)
(1.20501 0.184821 -9.89168e-17)
(1.21883 0.183981 -7.82593e-19)
(1.23272 0.1822 -7.80558e-19)
(1.24657 0.179518 7.78972e-19)
(1.26036 0.176004 4.97769e-17)
(1.27356 0.171848 2.48622e-17)
(1.15234 0.169997 1.02557e-16)
(1.16445 0.172738 -3.97224e-19)
(1.17665 0.174522 0)
(1.18911 0.175441 0)
(1.20189 0.175482 7.85054e-19)
(1.21485 0.174655 -5.16682e-17)
(1.22789 0.172988 1.33319e-23)
(1.24092 0.17052 5.02856e-17)
(1.25393 0.167316 3.8928e-19)
(1.26642 0.163556 -2.48904e-17)
(1.15207 0.161926 -1.01968e-16)
(1.16342 0.164332 -1.01554e-16)
(1.17489 0.165882 -1.01141e-16)
(1.18661 0.166652 -7.874e-19)
(1.19862 0.166634 1.31642e-23)
(1.21081 0.165835 5.01195e-17)
(1.22309 0.164284 7.81535e-19)
(1.23538 0.162015 9.98379e-23)
(1.24768 0.159089 0)
(1.25953 0.155676 0)
(1.15141 0.154148 -1.02175e-16)
(1.16208 0.156277 2.03238e-16)
(1.17287 0.157638 1.01059e-16)
(1.18392 0.158294 0)
(1.19524 0.158238 -9.97043e-17)
(1.20675 0.157479 4.93531e-17)
(1.21835 0.156042 0)
(1.22997 0.153958 -5.03702e-17)
(1.24163 0.151284 -2.45743e-17)
(1.25289 0.14818 0)
(1.15042 0.146664 1.01985e-16)
(1.16047 0.148562 -1.01683e-16)
(1.17066 0.14977 0)
(1.1811 0.150338 9.9925e-17)
(1.19181 0.150262 1.0049e-16)
(1.20269 0.149551 -1.00307e-16)
(1.21367 0.148224 -4.92971e-17)
(1.22469 0.146313 0)
(1.23576 0.143868 2.49897e-17)
(1.24648 0.141041 0)
(1.14917 0.139471 1.01399e-16)
(1.15867 0.141177 0)
(1.16831 0.14226 0)
(1.17821 0.142761 -9.98874e-17)
(1.18835 0.142678 -1.10359e-23)
(1.19866 0.142017 4.86026e-17)
(1.20909 0.140798 5.08934e-17)
(1.21956 0.139046 -3.91123e-19)
(1.23009 0.136811 1.95435e-19)
(1.24031 0.134233 1.95345e-19)
(1.14772 0.132564 -2.02422e-16)
(1.15672 0.134109 1.01021e-16)
(1.16586 0.13509 7.8758e-19)
(1.17526 0.135541 -7.86221e-19)
(1.18489 0.135459 -5.02457e-17)
(1.19469 0.13485 0)
(1.20461 0.133733 0)
(1.21457 0.13213 5.01063e-17)
(1.22461 0.130087 0)
(1.23437 0.127734 0)
(1.14613 0.125935 1.01418e-16)
(1.15466 0.127345 -1.01283e-16)
(1.16336 0.128243 7.86936e-19)
(1.1723 0.128656 -1.02169e-16)
(1.18147 0.12858 5.10311e-17)
(1.1908 0.128025 0)
(1.20024 0.127004 -7.83936e-19)
(1.20975 0.125539 -4.97567e-17)
(1.21933 0.123671 1.95832e-19)
(1.22867 0.121523 1.95791e-19)
(1.14442 0.119576 -1.0123e-16)
(1.15254 0.120872 3.93583e-19)
(1.16082 0.121702 -1.00646e-16)
(1.16935 0.122085 1.00559e-16)
(1.17809 0.122021 7.85093e-19)
(1.18699 0.121518 -7.84712e-19)
(1.196 0.120587 4.94188e-17)
(1.20509 0.119249 7.84237e-19)
(1.21425 0.117543 0)
(1.22319 0.115581 0)
(1.14263 0.113476 -3.92862e-19)
(1.15038 0.114676 1.01018e-16)
(1.15828 0.115448 1.00564e-16)
(1.16642 0.11581 -1.01306e-16)
(1.17477 0.115761 5.10316e-17)
(1.18328 0.115307 0)
(1.1919 0.114462 -5.02341e-17)
(1.20059 0.113241 -3.92445e-19)
(1.20937 0.111682 3.92459e-19)
(1.21795 0.10989 0)
(1.1408 0.107625 3.92707e-19)
(1.14819 0.108742 -1.00885e-16)
(1.15575 0.109468 -1.00481e-16)
(1.16355 0.109813 1.00483e-16)
(1.17154 0.10978 -1.00493e-16)
(1.17968 0.109374 0)
(1.18794 0.108607 0)
(1.19627 0.107495 -3.92777e-19)
(1.20469 0.106071 -2.49465e-17)
(1.21293 0.104434 2.53437e-17)
(1.13893 0.102012 9.98861e-17)
(1.14601 0.103058 -9.99691e-17)
(1.15326 0.103743 1.00399e-16)
(1.16073 0.104077 -5.10069e-17)
(1.16839 0.10406 7.85138e-19)
(1.1762 0.1037 0)
(1.18413 0.103006 -5.02961e-17)
(1.19212 0.101993 -3.93109e-19)
(1.2002 0.100693 2.55618e-17)
(1.20813 0.0991983 -2.5176e-17)
(1.13706 0.096626 0)
(1.14385 0.0976096 1.0023e-16)
(1.15081 0.0982601 -1.00317e-16)
(1.15799 0.0985847 5.09874e-17)
(1.16535 0.0985848 4.94619e-17)
(1.17285 0.0982667 0)
(1.18046 0.0976404 4.95408e-17)
(1.18815 0.0967196 3.93449e-19)
(1.19592 0.0955334 1.96833e-19)
(1.20355 0.0941683 1.96914e-19)
(1.1352 0.0914545 3.90265e-19)
(1.14173 0.0923834 -3.91014e-19)
(1.14842 0.0930038 1.00235e-16)
(1.15532 0.0933214 7.84118e-19)
(1.1624 0.0933379 -5.02471e-17)
(1.16962 0.0930595 4.95197e-17)
(1.17695 0.0924957 -4.95713e-17)
(1.18435 0.0916592 2.40203e-17)
(1.19183 0.0905774 5.91096e-19)
(1.19918 0.089331 -1.9714e-19)
(1.13336 0.0864866 9.93348e-17)
(1.13964 0.0873667 3.90503e-19)
(1.14609 0.0879606 0)
(1.15275 0.0882725 0)
(1.15957 0.0883045 2.37666e-23)
(1.16652 0.0880629 -5.03226e-17)
(1.17359 0.0875567 9.99911e-17)
(1.18072 0.0867976 3.94129e-19)
(1.18793 0.0858117 1.97236e-19)
(1.19503 0.0846742 1.28288e-17)
(1.13155 0.0817113 -9.91523e-17)
(1.13761 0.0825473 -3.89993e-19)
(1.14384 0.0831171 -5.00352e-17)
(1.15026 0.083424 0)
(1.15685 0.0834706 5.02473e-17)
(1.16356 0.083263 0)
(1.17038 0.0828096 -4.96325e-17)
(1.17727 0.0821218 -2.64277e-17)
(1.18422 0.0812238 3.94873e-19)
(1.19109 0.0801861 1.39429e-23)
(1.12979 0.0771176 -9.97463e-17)
(1.13565 0.0779131 3.89484e-19)
(1.14166 0.0784608 4.99943e-17)
(1.14787 0.0787631 -7.83217e-19)
(1.15424 0.078823 7.85117e-19)
(1.16073 0.0786464 0)
(1.16732 0.0782416 -7.883e-19)
(1.17398 0.0776192 3.94782e-19)
(1.18071 0.076802 1.97641e-19)
(1.18734 0.0758559 -1.24627e-17)
(1.12808 0.0726951 9.87887e-17)
(1.13375 0.0734529 3.88976e-19)
(1.13957 0.0739797 -7.80517e-19)
(1.14559 0.0742774 1.56584e-18)
(1.15175 0.0743491 -7.85117e-19)
(1.15803 0.0742009 0)
(1.16441 0.0738405 -2.52413e-17)
(1.17086 0.0732781 0)
(1.17737 0.0725351 0)
(1.1838 0.0716732 1.26751e-17)
(1.12642 0.0684334 4.94971e-17)
(1.13192 0.0691557 0)
(1.13757 0.0696624 0)
(1.1434 0.0699552 -7.82614e-19)
(1.14938 0.0700373 -4.94622e-17)
(1.15547 0.0699148 0)
(1.16166 0.0695949 2.60461e-17)
(1.1679 0.0690875 -1.18634e-18)
(1.17421 0.0684128 3.9609e-19)
(1.18045 0.0676282 -1.26897e-17)
(1.12483 0.0643228 -9.9199e-17)
(1.13017 0.0650111 3.87963e-19)
(1.13566 0.0654982 7.79238e-19)
(1.14133 0.0657856 -5.16328e-17)
(1.14713 0.0658765 1.02065e-16)
(1.15304 0.065777 -7.87607e-19)
(1.15905 0.0654941 2.52724e-17)
(1.16511 0.0650372 -3.95781e-19)
(1.17123 0.0644251 1.9825e-19)
(1.17729 0.0637116 1.98507e-19)
(1.1233 0.0603536 4.89309e-17)
(1.1285 0.0610091 3.87458e-19)
(1.13384 0.0614768 0)
(1.13935 0.061758 4.92669e-17)
(1.145 0.0618562 -4.94621e-17)
(1.15075 0.0617772 2.52117e-17)
(1.15658 0.0615279 2.02409e-24)
(1.16248 0.0611172 -3.96117e-19)
(1.16843 0.0605628 3.96905e-19)
(1.17432 0.0599147 0)
(1.12185 0.0565167 -3.84577e-19)
(1.12691 0.0571401 3.86954e-19)
(1.13212 0.0575883 0)
(1.13749 0.0578625 -5.00295e-17)
(1.14298 0.0579664 7.85107e-19)
(1.14858 0.0579057 -5.12284e-17)
(1.15426 0.0576869 -2.53036e-17)
(1.16 0.0573184 -2.57696e-17)
(1.16579 0.056817 1.98658e-19)
(1.17153 0.0562292 1.98966e-19)
(1.12047 0.0528032 -4.95201e-17)
(1.12541 0.053395 4.98519e-17)
(1.13049 0.0538235 0)
(1.13573 0.0540899 5.07915e-17)
(1.14109 0.0541979 -7.85111e-19)
(1.14655 0.0541531 2.52285e-17)
(1.15208 0.0539618 0)
(1.15768 0.053632 2.49979e-17)
(1.16332 0.0531794 5.96583e-19)
(1.16891 0.0526471 -1.99197e-19)
(1.11917 0.0492046 4.86635e-17)
(1.12399 0.049765 3.85905e-19)
(1.12896 0.0501734 7.76686e-19)
(1.13407 0.050431 -7.81108e-19)
(1.13931 0.0505417 0)
(1.14464 0.0505107 2.52369e-17)
(1.15004 0.0503443 -2.61265e-17)
(1.1555 0.0500498 2.58134e-17)
(1.161 0.0496421 1.99068e-19)
(1.16646 0.049161 1.29628e-17)
(1.11794 0.0457128 -4.89573e-17)
(1.12266 0.0462418 -4.93371e-17)
(1.12752 0.0466296 0)
(1.13253 0.0468775 0)
(1.13765 0.0469893 0)
(1.14286 0.0469702 -5.04905e-17)
(1.14814 0.0468261 7.92199e-19)
(1.15348 0.0465639 -2.66303e-17)
(1.15885 0.0461975 3.98544e-19)
(1.16419 0.0457638 -1.27782e-17)
(1.11679 0.0423197 -3.81737e-19)
(1.12142 0.0428173 3.84947e-19)
(1.12618 0.043184 -7.75412e-19)
(1.13109 0.0434213 7.80501e-19)
(1.1361 0.0435328 7.85097e-19)
(1.1412 0.0435237 -7.89175e-19)
(1.14637 0.0433995 2.45734e-17)
(1.15159 0.0431668 3.9781e-19)
(1.15685 0.0428385 3.98956e-19)
(1.16207 0.0424485 0)
(1.11572 0.039018 4.83984e-17)
(1.12027 0.0394838 3.84448e-19)
(1.12494 0.0398289 2.47929e-17)
(1.12975 0.0400545 7.80192e-19)
(1.13467 0.0401645 -4.96709e-24)
(1.13967 0.0401637 -7.89437e-19)
(1.14474 0.0400572 0)
(1.14985 0.0398515 0)
(1.155 0.0395582 1.27798e-17)
(1.16012 0.0392087 0)
(1.11474 0.0358002 3.80396e-19)
(1.1192 0.036234 -3.83949e-19)
(1.1238 0.0365568 -2.55467e-17)
(1.12852 0.0367699 4.76526e-24)
(1.13335 0.036877 7.85094e-19)
(1.13826 0.0368828 2.52704e-17)
(1.14323 0.0367922 2.53974e-17)
(1.14825 0.036611 -3.98483e-19)
(1.1533 0.0363501 -1.23932e-17)
(1.15832 0.0360382 0)
(1.11383 0.0326594 -3.79706e-19)
(1.11822 0.0330608 3.83452e-19)
(1.12274 0.0333606 -2.47522e-17)
(1.12739 0.0335603 0)
(1.13214 0.0336634 0)
(1.13697 0.0336743 0)
(1.14186 0.0335977 -2.54131e-17)
(1.14679 0.033439 -1.31612e-17)
(1.15174 0.033208 4.00197e-19)
(1.15668 0.032931 0)
(1.113 0.0295888 -3.79018e-19)
(1.11733 0.0299574 3.82955e-19)
(1.12179 0.0302335 2.3959e-17)
(1.12636 0.0304189 4.57925e-24)
(1.13104 0.0305169 7.85084e-19)
(1.13579 0.0305316 0)
(1.1406 0.0304673 7.94647e-19)
(1.14545 0.030329 1.15758e-17)
(1.15033 0.0301259 -1.24189e-17)
(1.15518 0.0298813 0)
(1.11226 0.0265818 0)
(1.11653 0.026917 2.44773e-17)
(1.12093 0.0271689 2.47116e-17)
(1.12544 0.0273391 -7.78974e-19)
(1.13005 0.0274309 7.85078e-19)
(1.13473 0.0274481 0)
(1.13947 0.0273947 1.35174e-17)
(1.14425 0.0272752 -1.19852e-18)
(1.14905 0.0270978 1.30334e-17)
(1.15383 0.0268835 2.0106e-19)
(1.11159 0.023632 -3.77648e-19)
(1.11581 0.0239332 -2.40637e-17)
(1.12015 0.0241602 -2.39197e-17)
(1.12461 0.0243145 -4.42976e-24)
(1.12916 0.0243992 -7.85072e-19)
(1.13379 0.0244179 0)
(1.13846 0.024374 -1.35257e-17)
(1.14318 0.0242717 3.9985e-19)
(1.14791 0.0241183 6.02165e-19)
(1.15263 0.0239323 -2.01295e-19)
(1.111 0.020733 3.76966e-19)
(1.11518 0.0209997 -3.81471e-19)
(1.11948 0.0212012 0)
(1.12388 0.0213389 0)
(1.12838 0.0214157 0)
(1.13295 0.0214348 -1.2656e-17)
(1.13757 0.0213993 -1.2738e-17)
(1.14223 0.0213128 -4.00187e-19)
(1.1469 0.0211818 2.00932e-19)
(1.15156 0.0210224 2.01531e-19)
(1.11049 0.0178786 -3.76285e-19)
(1.11463 0.0181103 3.80978e-19)
(1.11889 0.0182857 1.30957e-17)
(1.12325 0.0184062 -1.3227e-17)
(1.1277 0.0184744 0)
(1.13223 0.018493 2.53204e-17)
(1.1368 0.0184649 1.27458e-17)
(1.14141 0.018393 6.00796e-18)
(1.14603 0.018283 -6.23532e-18)
(1.15063 0.0181486 2.01767e-19)
(1.11005 0.0150627 -1.23951e-17)
(1.11416 0.0152589 1.2556e-17)
(1.11838 0.0154077 -1.23152e-17)
(1.12271 0.0155106 2.41104e-17)
(1.12713 0.0155695 7.85052e-19)
(1.13161 0.015587 -2.53287e-17)
(1.13614 0.0155652 6.37685e-18)
(1.1407 0.0155069 -6.81485e-18)
(1.14528 0.0154166 6.84586e-18)
(1.14984 0.015306 0)
(1.10969 0.0122791 1.23727e-17)
(1.11377 0.0124394 -3.79998e-19)
(1.11797 0.0125614 -7.69068e-19)
(1.12227 0.0126462 -1.16617e-17)
(1.12665 0.0126954 0)
(1.1311 0.012711 1.26685e-17)
(1.1356 0.012695 -7.17839e-18)
(1.14012 0.0126492 -5.21582e-18)
(1.14466 0.0125776 -6.04677e-19)
(1.14918 0.0124894 2.02241e-19)
(1.1094 0.00952188 -1.19762e-17)
(1.11346 0.00964619 -2.16165e-24)
(1.11764 0.00974109 7.68436e-19)
(1.12192 0.00980744 -1.55428e-18)
(1.12627 0.00984654 1.57007e-18)
(1.13069 0.00985982 -7.12838e-18)
(1.13516 0.00984866 5.58665e-18)
(1.13966 0.00981467 3.61405e-18)
(1.14416 0.00976062 3.83361e-18)
(1.14866 0.00969381 -2.02479e-19)
(1.10919 0.00678514 1.15811e-17)
(1.11323 0.00687322 -1.17495e-17)
(1.1174 0.00694083 0)
(1.12165 0.00698851 0)
(1.12599 0.00701707 7.85023e-19)
(1.13039 0.00702746 5.54611e-18)
(1.13484 0.00702062 -6.38868e-18)
(1.13931 0.00699761 2.81334e-18)
(1.14379 0.00696041 -3.0297e-18)
(1.14826 0.0069141 2.02717e-19)
(1.10904 0.00406298 3.72912e-19)
(1.11308 0.00411456 -3.78527e-19)
(1.11724 0.00415457 3.0687e-18)
(1.12148 0.00418316 -7.76524e-19)
(1.12581 0.0042007 3.14007e-18)
(1.13019 0.00420769 -2.37768e-18)
(1.13462 0.00420461 0)
(1.13908 0.00419206 -4.02249e-19)
(1.14354 0.00417115 4.04383e-19)
(1.148 0.00414482 -8.11823e-19)
(1.10897 0.00135135 -3.7327e-19)
(1.11301 0.00136737 3.79116e-19)
(1.11716 0.00138007 -3.84394e-18)
(1.1214 0.00138941 7.78554e-19)
(1.12571 0.00139542 -1.57485e-18)
(1.13009 0.00139822 1.59062e-18)
(1.13451 0.00139794 0)
(1.13896 0.0013947 -4.039e-19)
(1.14342 0.00138883 2.03068e-19)
(1.14787 0.00138123 1.01934e-18)
(2.3188 0.056117 0)
(1.15426 0.00834505 0)
(0.953181 0.0160567 0)
(1.05837 0.0414092 0)
(1.08417 0.0512903 0)
(1.07446 0.0573944 0)
(1.06992 0.0659287 0)
(1.06912 0.0755559 0)
(1.06796 0.0854737 0)
(1.06632 0.0959602 0)
(1.06468 0.107277 0)
(1.06321 0.119536 0)
(1.062 0.132836 0)
(1.06119 0.147292 0)
(1.06096 0.163016 0)
(1.06153 0.1801 0)
(1.06317 0.198591 0)
(1.06627 0.218426 0)
(1.07134 0.239269 0)
(1.07798 0.259726 0)
(2.32906 0.0351248 0)
(1.13183 0.0147578 0)
(0.957562 0.0225409 0)
(1.06584 0.0413287 0)
(1.08553 0.0510172 0)
(1.07527 0.0582183 0)
(1.07202 0.06698 0)
(1.07185 0.0765627 0)
(1.07112 0.0864778 0)
(1.07008 0.0969346 0)
(1.06918 0.108134 0)
(1.06852 0.120173 0)
(1.0682 0.133137 0)
(1.06837 0.147118 0)
(1.06921 0.162198 0)
(1.07093 0.178431 0)
(1.07382 0.195812 0)
(1.07823 0.214187 0)
(1.08459 0.232994 0)
(1.09196 0.250611 0)
(2.33387 0.0199149 0)
(1.119 0.0199061 0)
(0.955808 0.0275957 0)
(1.06714 0.0407764 0)
(1.0852 0.0503863 0)
(1.07526 0.0586438 0)
(1.07305 0.0675905 0)
(1.07358 0.0770825 0)
(1.07344 0.0869487 0)
(1.07307 0.0973277 0)
(1.07291 0.108357 0)
(1.07304 0.120122 0)
(1.07356 0.132694 0)
(1.07462 0.146142 0)
(1.0764 0.160519 0)
(1.0791 0.175843 0)
(1.08296 0.192069 0)
(1.0883 0.208996 0)
(1.09545 0.226022 0)
(1.10359 0.241655 0)
(2.33737 0.0131006 0)
(1.11214 0.0203299 0)
(0.952771 0.0286722 0)
(1.06624 0.0398301 0)
(1.08414 0.0495953 0)
(1.07465 0.0584859 0)
(1.07328 0.0676073 0)
(1.07452 0.0770909 0)
(1.07503 0.0869238 0)
(1.07536 0.0972094 0)
(1.07592 0.108054 0)
(1.07681 0.119532 0)
(1.07811 0.131704 0)
(1.07997 0.14462 0)
(1.08257 0.158309 0)
(1.08609 0.172768 0)
(1.09074 0.187925 0)
(1.09678 0.203573 0)
(1.10447 0.219145 0)
(1.11319 0.233243 0)
(2.34056 0.0101927 0)
(1.10854 0.0194887 0)
(0.95035 0.0282951 0)
(1.06505 0.0387167 0)
(1.08299 0.0485417 0)
(1.07382 0.0577725 0)
(1.07309 0.0670456 0)
(1.07496 0.0765532 0)
(1.07609 0.0863483 0)
(1.07706 0.0965217 0)
(1.0783 0.107163 0)
(1.07988 0.118338 0)
(1.08189 0.130097 0)
(1.08447 0.142475 0)
(1.08777 0.155486 0)
(1.09198 0.169109 0)
(1.09727 0.183261 0)
(1.10385 0.197738 0)
(1.11193 0.212019 0)
(1.12102 0.224786 0)
(2.34379 0.00892088 0)
(1.10684 0.0187243 0)
(0.948789 0.0276088 0)
(1.06413 0.0375702 0)
(1.08208 0.0473134 0)
(1.07308 0.0566827 0)
(1.07277 0.0660366 0)