/*--------------------------------*- C++ -*----------------------------------*\
  =========                 |
  \\      /  F ield         | OpenFOAM: The Open Source CFD Toolbox
   \\    /   O peration     | Website:  https://openfoam.org
    \\  /    A nd           | Version:  6
     \\/     M anipulation  |
\*---------------------------------------------------------------------------*/
FoamFile
{
    version     2.0;
    format      ascii;
    class       surfaceScalarField;
    location    "0.95";
    object      phi;
}
// * * * * * * * * * * * * * * * * * * * * * * * * * * * * * * * * * * * * * //

dimensions      [0 3 -1 0 0 0 0];

internalField   nonuniform List<scalar> 
11030
(
0.000117928
2.91941e-07
0.000118027
-9.92274e-08
0.000117903
1.23872e-07
0.000117547
3.56672e-07
0.0001172
3.46876e-07
0.000116864
3.35533e-07
0.000116476
3.8803e-07
0.000116013
4.63267e-07
0.000115469
5.43661e-07
0.000114836
6.33629e-07
0.000114098
7.37477e-07
0.000113242
8.56574e-07
0.000112249
9.92252e-07
0.000111103
1.14663e-06
0.000109781
1.32222e-06
0.000108259
1.52156e-06
0.000106513
1.74643e-06
0.000104516
1.9963e-06
0.000102251
2.26515e-06
2.5319e-06
9.97192e-05
0.000118539
-3.8265e-08
0.000118273
1.66254e-07
0.000117833
5.64365e-07
0.000117465
7.24395e-07
0.00011711
7.01691e-07
0.000116713
7.32908e-07
0.000116257
8.43411e-07
0.000115736
9.84599e-07
0.000115137
1.14244e-06
0.000114447
1.32357e-06
0.000113652
1.53307e-06
0.000112735
1.77325e-06
0.00011168
2.04704e-06
0.000110468
2.35859e-06
0.000109078
2.71279e-06
0.000107485
3.11449e-06
0.000105664
3.56708e-06
0.000103591
4.0693e-06
0.000101247
4.60899e-06
5.14844e-06
9.86307e-05
0.000118228
-1.07309e-07
0.000118108
2.85663e-07
0.000117764
9.09055e-07
0.000117367
1.12139e-06
0.000116967
1.10093e-06
0.000116531
1.16934e-06
0.000116033
1.34155e-06
0.000115464
1.5539e-06
0.000114813
1.79258e-06
0.00011407
2.06734e-06
0.000113218
2.38464e-06
0.000112244
2.74774e-06
0.00011113
3.16104e-06
0.000109858
3.63065e-06
0.000108407
4.16368e-06
0.000106754
4.76717e-06
0.000104875
5.4461e-06
0.000102746
6.19864e-06
0.000100348
7.00705e-06
7.81978e-06
9.76762e-05
0.00011809
-9.60772e-08
0.000117934
4.4154e-07
0.000117599
1.24403e-06
0.0001172
1.5205e-06
0.000116783
1.51788e-06
0.000116321
1.63125e-06
0.000115791
1.87192e-06
0.000115183
2.16196e-06
0.000114489
2.48679e-06
0.000113697
2.85915e-06
0.000112795
3.28698e-06
0.000111768
3.7745e-06
0.000110601
4.32746e-06
0.000109278
4.95383e-06
0.000107779
5.66273e-06
0.000106083
6.46325e-06
0.000104167
7.36185e-06
0.00010201
8.35618e-06
9.95935e-05
9.42331e-06
1.05002e-05
9.69131e-05
0.000117957
-1.27136e-08
0.000117748
6.50384e-07
0.000117405
1.58716e-06
0.000117004
1.92152e-06
0.000116577
1.94558e-06
0.000116095
2.11288e-06
0.000115537
2.42983e-06
0.000114894
2.80463e-06
0.00011416
3.22145e-06
0.000113323
3.69562e-06
0.000112374
4.23634e-06
0.0001113
4.84861e-06
0.000110088
5.53946e-06
0.000108723
6.31846e-06
0.000107189
7.19652e-06
0.000105468
8.18446e-06
0.00010354
9.28999e-06
0.000101386
1.05102e-05
9.89921e-05
1.18172e-05
1.31389e-05
9.63534e-05
0.000117808
1.55561e-07
0.000117544
9.14168e-07
0.0001172
1.93069e-06
0.000116804
2.31775e-06
0.000116369
2.38104e-06
0.000115867
2.61399e-06
0.000115281
3.01661e-06
0.000114601
3.48392e-06
0.000113824
3.99857e-06
0.000112942
4.57805e-06
0.000111946
5.23262e-06
0.000110826
5.96797e-06
0.000109573
6.79223e-06
0.000108175
7.71635e-06
0.000106619
8.75269e-06
0.00010489
9.91339e-06
0.000102973
1.12071e-05
0.000100853
1.26302e-05
9.85199e-05
1.41506e-05
1.56895e-05
9.59693e-05
0.000117608
4.5427e-07
0.000117296
1.22583e-06
0.000116995
2.23215e-06
0.000116622
2.6903e-06
0.000116177
2.82577e-06
0.00011565
3.1414e-06
0.000115026
3.64035e-06
0.000114302
4.20846e-06
0.000113474
4.82609e-06
0.00011254
5.51259e-06
0.000111493
6.27954e-06
0.000110327
7.13342e-06
0.000109036
8.08335e-06
0.000107611
9.14139e-06
0.000106043
1.03209e-05
0.000104321
1.16349e-05
0.000102436
1.30925e-05
0.000100376
1.46899e-05
9.81353e-05
1.63915e-05
1.81159e-05
9.5709e-05
0.000117267
1.01993e-06
0.000116945
1.54794e-06
0.000116801
2.37571e-06
0.000116482
3.0099e-06
0.000116012
3.29594e-06
0.000115441
3.71256e-06
0.000114764
4.31641e-06
0.00011398
4.993e-06
0.000113089
5.71663e-06
0.000112093
6.50865e-06
0.00011099
7.38306e-06
0.000109776
8.3475e-06
0.000108447
9.41194e-06
0.000106999
1.05892e-05
0.000105427
1.1893e-05
0.000103726
1.33366e-05
0.000101889
1.49294e-05
9.99109e-05
1.66677e-05
9.77874e-05
1.8515e-05
2.03953e-05
9.5508e-05
0.000116452
2.32985e-06
0.000116433
1.56669e-06
0.000116705
2.10328e-06
0.000116415
3.29997e-06
0.000115862
3.8494e-06
0.000115217
4.35706e-06
0.000114467
5.06638e-06
0.000113604
5.85679e-06
0.000112635
6.68516e-06
0.000111567
7.57672e-06
0.0001104
8.55009e-06
0.000109133
9.61429e-06
0.000107766
1.07797e-05
0.000106296
1.2059e-05
0.000104723
1.34657e-05
0.000103047
1.50122e-05
0.000101269
1.67076e-05
9.93876e-05
1.85492e-05
9.74007e-05
2.05019e-05
2.24907e-05
9.53053e-05
0.000114988
5.08845e-06
0.000116305
2.49765e-07
0.000116935
1.47301e-06
0.000116423
3.8123e-06
0.000115706
4.56616e-06
0.000114953
5.1101e-06
0.0001141
5.91896e-06
0.00011314
6.81727e-06
0.000112084
7.74052e-06
0.00011094
8.72124e-06
0.000109707
9.78287e-06
0.000108386
1.09351e-05
0.000106978
1.21879e-05
0.000105484
1.35528e-05
0.000103908
1.50416e-05
0.000102257
1.6664e-05
0.000100538
1.8426e-05
9.87624e-05
2.03252e-05
9.69177e-05
2.23466e-05
9.49899e-05
2.44185e-05
8.9234e-05
1.04852e-05
7.86045e-05
1.06295e-05
6.78163e-05
1.07882e-05
5.6864e-05
1.09523e-05
4.5762e-05
1.1102e-05
3.45832e-05
1.11789e-05
2.35421e-05
1.10411e-05
1.31576e-05
1.03845e-05
4.52481e-06
8.63276e-06
4.52481e-06
8.82307e-05
2.08852e-05
7.76811e-05
2.11791e-05
6.69763e-05
2.14931e-05
5.61135e-05
2.1815e-05
4.5111e-05
2.21045e-05
3.40466e-05
2.22432e-05
2.31372e-05
2.19506e-05
1.28992e-05
2.06225e-05
4.46342e-06
1.70685e-05
8.98823e-06
8.73553e-05
3.12061e-05
7.68814e-05
3.1653e-05
6.62546e-05
3.21199e-05
5.54743e-05
3.25953e-05
4.45608e-05
3.3018e-05
3.35954e-05
3.32086e-05
2.27994e-05
3.27465e-05
1.26927e-05
3.07292e-05
4.37997e-06
2.53813e-05
1.33682e-05
8.66522e-05
4.1467e-05
7.6238e-05
4.20672e-05
6.56745e-05
4.26834e-05
5.49616e-05
4.33082e-05
4.41199e-05
4.38597e-05
3.32329e-05
4.40957e-05
2.25256e-05
4.34538e-05
1.25207e-05
4.07341e-05
4.31148e-06
3.35905e-05
1.76797e-05
8.6133e-05
5.16874e-05
7.57591e-05
5.2441e-05
6.52403e-05
5.32022e-05
5.4575e-05
5.39734e-05
4.37833e-05
5.46515e-05
3.29502e-05
5.49288e-05
2.23051e-05
5.40989e-05
1.2376e-05
5.06632e-05
4.25125e-06
4.17153e-05
2.19309e-05
8.57726e-05
6.18841e-05
7.54211e-05
6.27925e-05
6.49285e-05
6.36947e-05
5.42905e-05
6.46114e-05
4.35257e-05
6.54163e-05
3.27218e-05
6.57327e-05
2.21147e-05
6.4706e-05
1.22411e-05
6.05368e-05
4.1902e-06
4.97662e-05
2.61211e-05
8.55202e-05
7.20728e-05
7.51749e-05
7.31378e-05
6.46917e-05
7.4178e-05
5.40607e-05
7.52424e-05
4.33004e-05
7.61766e-05
3.25035e-05
7.65296e-05
2.19161e-05
7.52934e-05
1.20885e-05
7.03644e-05
4.11447e-06
5.77402e-05
3.02356e-05
8.53039e-05
8.22769e-05
7.49466e-05
8.34951e-05
6.4456e-05
8.46686e-05
5.38119e-05
8.58864e-05
4.30363e-05
8.69522e-05
3.22306e-05
8.73353e-05
2.16563e-05
8.58677e-05
1.18813e-05
8.01394e-05
4.00595e-06
6.56156e-05
3.42415e-05
8.50134e-05
9.25687e-05
7.46199e-05
9.38886e-05
6.41027e-05
9.51857e-05
5.34284e-05
9.65607e-05
4.26288e-05
9.77519e-05
3.1816e-05
9.81481e-05
2.12691e-05
9.64146e-05
1.15736e-05
8.98348e-05
3.83921e-06
7.335e-05
3.80807e-05
8.43974e-05
0.000103161
7.3979e-05
0.000104307
6.34198e-05
0.000105745
5.27223e-05
0.000107258
4.1925e-05
0.000108549
3.11444e-05
0.000108929
2.06709e-05
0.000106888
1.11006e-05
9.94052e-05
3.56264e-06
8.08879e-05
4.16434e-05
3.2273e-05
0.000108718
-3.78295e-05
2.67482e-05
0.000109832
2.13125e-05
0.000111181
1.60154e-05
0.000112555
1.10072e-05
0.000113557
6.55015e-06
0.000113386
3.00682e-06
0.000110431
7.46757e-07
0.000101665
-9.12731e-08
8.1726e-05
4.15521e-05
2.61485e-05
0.000113709
-3.11394e-05
2.11486e-05
0.000114832
1.62471e-05
0.000116082
1.15562e-05
0.000117246
7.24411e-06
0.000117869
3.57213e-06
0.000117058
8.73546e-07
0.00011313
-5.43295e-07
0.000103082
-6.29101e-07
8.18118e-05
4.0923e-05
2.0047e-05
0.000118165
-2.45034e-05
1.55911e-05
0.000119288
1.12642e-05
0.000120409
7.20693e-06
0.000121303
3.61075e-06
0.000121466
7.38005e-07
0.000119931
-1.10694e-06
0.000114975
-1.68253e-06
0.000103658
-1.04817e-06
8.11774e-05
3.98748e-05
1.40283e-05
0.000122093
-1.79568e-05
1.01359e-05
0.00012318
6.40974e-06
0.000124135
3.01102e-06
0.000124702
1.48574e-07
0.000124328
-1.91722e-06
0.000121996
-2.91419e-06
0.000115972
-2.67471e-06
0.000103418
-1.38165e-06
7.98844e-05
3.84932e-05
8.13741e-06
0.000125493
-1.15365e-05
4.81864e-06
0.000126499
1.71335e-06
0.00012724
-1.00459e-06
0.00012742
-3.11724e-06
0.000126441
-4.37313e-06
0.000123252
-4.5391e-06
0.000116138
-3.52766e-06
0.000102407
-1.64524e-06
7.80019e-05
3.6848e-05
2.4042e-06
0.000128359
-5.27074e-06
-3.32543e-07
0.000129236
-2.80131e-06
0.000129709
-4.82077e-06
0.00012944
-6.17191e-06
0.000127792
-6.62044e-06
0.000123701
-5.98012e-06
0.000115497
-4.24813e-06
0.000100675
-1.84758e-06
7.56014e-05
3.50004e-05
-3.15108e-06
0.000130688
8.2202e-07
-5.29729e-06
0.000131382
-7.11604e-06
0.000131528
-8.42301e-06
0.000130747
-9.00557e-06
0.000128374
-8.65509e-06
0.00012335
-7.23979e-06
0.000114082
-4.84404e-06
9.8279e-05
-1.99688e-06
7.27542e-05
3.30035e-05
-8.51696e-06
0.000132473
6.73225e-06
-1.00624e-05
0.000132927
-1.12178e-05
0.000132683
-1.18002e-05
0.000131329
-1.16106e-05
0.000128185
-1.04745e-05
0.000122214
-8.3215e-06
0.000111929
-5.32332e-06
9.52808e-05
-2.10047e-06
6.95314e-05
3.0903e-05
-1.36873e-05
0.000133704
1.2456e-05
-1.4618e-05
0.000133858
-1.50935e-05
0.000133159
-1.49379e-05
0.000131173
-1.39737e-05
0.000127221
-1.20701e-05
0.000120311
-9.2246e-06
0.000109084
-5.69301e-06
9.17493e-05
-2.1661e-06
6.60045e-05
2.87369e-05
-1.86517e-05
1.79972e-05
0.000134359
-1.89373e-05
0.000134144
-1.87032e-05
0.000132925
-1.77894e-05
0.000130259
-1.60513e-05
0.000125483
-1.34119e-05
0.000117671
-9.94037e-06
0.000105612
-5.96372e-06
8.77726e-05
-2.21094e-06
6.22517e-05
2.6526e-05
8.34611e-05
-3.84341e-05
-8.28566e-05
8.42882e-05
-3.19664e-05
8.5311e-05
-2.55262e-05
8.6473e-05
-1.91188e-05
8.77324e-05
-1.27959e-05
8.90414e-05
-6.57976e-06
9.0349e-05
-4.85624e-07
9.16048e-05
5.47652e-06
9.2761e-05
1.12997e-05
1.69956e-05
9.37626e-05
8.42206e-05
-3.88614e-05
-8.37934e-05
8.48404e-05
-3.25862e-05
8.5656e-05
-2.63418e-05
8.66243e-05
-2.00871e-05
8.77074e-05
-1.3879e-05
8.88645e-05
-7.73683e-06
9.0052e-05
-1.67316e-06
9.12268e-05
4.3018e-06
9.23471e-05
1.01794e-05
1.59754e-05
9.33673e-05
8.48642e-05
-3.90846e-05
-8.4641e-05
8.52976e-05
-3.30196e-05
8.59225e-05
-2.69666e-05
8.6708e-05
-2.08726e-05
8.76212e-05
-1.47922e-05
8.86279e-05
-8.7435e-06
8.96919e-05
-2.73722e-06
9.07773e-05
3.21642e-06
9.18487e-05
9.10797e-06
1.49543e-05
9.28698e-05
8.54195e-05
-3.91579e-05
-8.53462e-05
8.56912e-05
-3.32914e-05
8.61451e-05
-2.74205e-05
8.67603e-05
-2.14877e-05
8.7511e-05
-1.5543e-05
8.83701e-05
-9.60253e-06
8.93086e-05
-3.67579e-06
9.02976e-05
2.22742e-06
9.1308e-05
8.09758e-06
1.39512e-05
9.23111e-05
8.58794e-05
-3.91118e-05
-8.59255e-05
8.60155e-05
-3.34274e-05
8.63209e-05
-2.77259e-05
8.67835e-05
-2.19504e-05
8.73849e-05
-1.61444e-05
8.81047e-05
-1.03223e-05
8.89209e-05
-4.49201e-06
8.9811e-05
1.33734e-06
9.07518e-05
7.15677e-06
1.29821e-05
9.1721e-05
8.62445e-05
-3.89614e-05
-8.6395e-05
8.62638e-05
-3.34466e-05
8.64414e-05
-2.79035e-05
8.67711e-05
-2.22801e-05
8.724e-05
-1.66133e-05
8.78334e-05
-1.09157e-05
8.85353e-05
-5.19392e-06
8.93288e-05
5.43795e-07
9.01962e-05
6.28934e-06
1.20578e-05
9.11205e-05
8.6523e-05
-3.87175e-05
-8.67668e-05
8.64398e-05
-3.33634e-05
8.6507e-05
-2.79708e-05
8.67216e-05
-2.24947e-05
8.70747e-05
-1.69664e-05
8.75559e-05
-1.13969e-05
8.81538e-05
-5.79185e-06
8.88564e-05
-1.58754e-07
8.96504e-05
5.49531e-06
1.11848e-05
9.05234e-05
8.67247e-05
-3.83898e-05
-8.70524e-05
8.65511e-05
-3.31898e-05
8.65225e-05
-2.79421e-05
8.66374e-05
-2.26096e-05
8.68897e-05
-1.72187e-05
8.72722e-05
-1.17794e-05
8.7777e-05
-6.29667e-06
8.83957e-05
-7.77461e-07
8.91189e-05
4.77209e-06
1.03659e-05
8.99378e-05
8.686e-05
-3.79868e-05
-8.7263e-05
8.66062e-05
-3.29361e-05
8.64936e-05
-2.78296e-05
8.65218e-05
-2.26377e-05
8.66864e-05
-1.73834e-05
8.69825e-05
-1.20754e-05
8.74046e-05
-6.71883e-06
8.79472e-05
-1.32004e-06
8.86038e-05
4.11554e-06
9.60126e-06
8.93684e-05
8.69383e-05
-3.75163e-05
-8.74089e-05
8.66133e-05
-3.2611e-05
8.64269e-05
-2.76431e-05
8.63792e-05
-2.259e-05
8.64672e-05
-1.74714e-05
8.66875e-05
-1.22956e-05
8.70365e-05
-7.06784e-06
8.75105e-05
-1.79407e-06
8.81053e-05
3.52073e-06
8.88923e-06
8.88173e-05
8.69687e-05
-3.69853e-05
-8.74997e-05
8.65801e-05
-3.22225e-05
8.63284e-05
-2.73914e-05
8.6214e-05
-2.24755e-05
8.62347e-05
-1.74922e-05
8.63884e-05
-1.24493e-05
8.66726e-05
-7.35209e-06
8.70851e-05
-2.2066e-06
8.76233e-05
2.98254e-06
8.22727e-06
8.82853e-05
8.69589e-05
-3.64001e-05
-8.7544e-05
8.65137e-05
-3.17774e-05
8.6204e-05
-2.70817e-05
8.60305e-05
-2.2302e-05
8.59919e-05
-1.74536e-05
8.60867e-05
-1.2544e-05
8.63134e-05
-7.57883e-06
8.66708e-05
-2.56399e-06
8.71573e-05
2.49601e-06
7.61226e-06
8.77724e-05
8.69159e-05
-3.57666e-05
-8.75495e-05
8.64202e-05
-3.12816e-05
8.60588e-05
-2.67204e-05
8.58329e-05
-2.20761e-05
8.57416e-05
-1.73623e-05
8.57841e-05
-1.25865e-05
8.59596e-05
-7.7543e-06
8.62674e-05
-2.87181e-06
8.67069e-05
2.05654e-06
7.04094e-06
8.72782e-05
8.6846e-05
-3.50895e-05
-8.7523e-05
8.63049e-05
-3.07406e-05
8.58975e-05
-2.6313e-05
8.56248e-05
-2.18034e-05
8.54865e-05
-1.72241e-05
8.54823e-05
-1.25822e-05
8.56118e-05
-7.88384e-06
8.58749e-05
-3.13496e-06
8.62715e-05
1.65994e-06
6.5101e-06
8.68024e-05
8.67543e-05
-3.43736e-05
-8.74702e-05
8.61727e-05
-3.0159e-05
8.57239e-05
-2.58642e-05
8.54093e-05
-2.14887e-05
8.52289e-05
-1.70437e-05
8.51827e-05
-1.25361e-05
8.52709e-05
-7.97202e-06
8.54936e-05
-3.35767e-06
8.58511e-05
1.30249e-06
6.01673e-06
8.63445e-05
8.66453e-05
-3.36227e-05
-8.73962e-05
8.60273e-05
-2.9541e-05
8.55415e-05
-2.53784e-05
8.51892e-05
-2.11364e-05
8.49709e-05
-1.68254e-05
8.4887e-05
-1.24522e-05
8.49378e-05
-8.02282e-06
8.51238e-05
-3.54364e-06
8.54454e-05
9.80851e-07
5.55802e-06
8.59041e-05
8.6523e-05
-3.28404e-05
-8.73053e-05
8.58723e-05
-2.88903e-05
8.53531e-05
-2.48591e-05
8.49669e-05
-2.07502e-05
8.47144e-05
-1.6573e-05
8.45963e-05
-1.2334e-05
8.46131e-05
-8.03966e-06
8.47656e-05
-3.69609e-06
8.50543e-05
6.92095e-07
5.13141e-06
8.54809e-05
8.63907e-05
-3.20299e-05
-8.72012e-05
8.57105e-05
-2.82101e-05
8.51611e-05
-2.43098e-05
8.47443e-05
-2.03333e-05
8.44608e-05
-1.62895e-05
8.43117e-05
-1.21849e-05
8.42976e-05
-8.02557e-06
8.44194e-05
-3.81788e-06
8.46778e-05
4.33601e-07
4.73456e-06
8.50747e-05
8.6251e-05
-3.11939e-05
-8.70869e-05
8.55442e-05
-2.75034e-05
8.49677e-05
-2.37332e-05
8.4523e-05
-1.98887e-05
8.42115e-05
-1.5978e-05
8.4034e-05
-1.20074e-05
8.39917e-05
-7.9832e-06
8.40853e-05
-3.91151e-06
8.43159e-05
2.03027e-07
4.36535e-06
8.46851e-05
8.61063e-05
-3.0335e-05
-8.69652e-05
8.53756e-05
-2.67727e-05
8.47744e-05
-2.3132e-05
8.43046e-05
-1.94188e-05
8.39674e-05
-1.56408e-05
8.37642e-05
-1.18042e-05
8.36959e-05
-7.91493e-06
8.37636e-05
-3.97924e-06
8.39684e-05
-1.73091e-09
4.02185e-06
8.43119e-05
8.59586e-05
-2.94553e-05
-8.68383e-05
8.52062e-05
-2.60204e-05
8.45827e-05
-2.25085e-05
8.409e-05
-1.89261e-05
8.37295e-05
-1.52804e-05
8.35027e-05
-1.15773e-05
8.34106e-05
-7.82286e-06
8.34544e-05
-4.02309e-06
8.36353e-05
-1.82575e-07
3.70229e-06
8.39548e-05
8.58096e-05
-2.85569e-05
-8.6708e-05
8.50376e-05
-2.52483e-05
8.43938e-05
-2.18647e-05
8.38802e-05
-1.84125e-05
8.34985e-05
-1.48986e-05
8.325e-05
-1.13288e-05
8.3136e-05
-7.70891e-06
8.31578e-05
-4.04488e-06
8.33164e-05
-3.41236e-07
3.40505e-06
8.36137e-05
8.56607e-05
-2.76416e-05
-8.6576e-05
8.48709e-05
-2.44585e-05
8.42086e-05
-2.12024e-05
8.3676e-05
-1.78799e-05
8.32748e-05
-1.44974e-05
8.30064e-05
-1.10604e-05
8.28723e-05
-7.57479e-06
8.28737e-05
-4.04626e-06
8.30117e-05
-4.79294e-07
3.12862e-06
8.32882e-05
8.5513e-05
-2.67109e-05
-8.64437e-05
8.4707e-05
-2.36525e-05
8.4028e-05
-2.05234e-05
8.3478e-05
-1.733e-05
8.30589e-05
-1.40783e-05
8.27723e-05
-1.07738e-05
8.26196e-05
-7.42207e-06
8.2602e-05
-4.02875e-06
8.2721e-05
-5.98204e-07
2.87162e-06
8.2978e-05
8.53675e-05
-2.57662e-05
-8.63121e-05
8.45469e-05
-2.28319e-05
8.38525e-05
-1.98291e-05
8.32867e-05
-1.67641e-05
8.28512e-05
-1.36428e-05
8.25478e-05
-1.04703e-05
8.23779e-05
-7.25217e-06
8.23428e-05
-3.99373e-06
8.24439e-05
-6.99305e-07
2.63275e-06
8.26828e-05
8.52251e-05
-2.4809e-05
-8.61823e-05
8.43911e-05
-2.19979e-05
8.36828e-05
-1.91208e-05
8.31024e-05
-1.61838e-05
8.26519e-05
-1.31923e-05
8.2333e-05
-1.01514e-05
8.21472e-05
-7.06641e-06
8.20959e-05
-3.94247e-06
8.21805e-05
-7.83834e-07
2.41081e-06
8.24024e-05
8.50863e-05
-2.38402e-05
-8.60551e-05
8.42402e-05
-2.11517e-05
8.35191e-05
-1.83997e-05
8.29254e-05
-1.55901e-05
8.24611e-05
-1.2728e-05
8.2128e-05
-9.81825e-06
8.19275e-05
-6.86596e-06
8.18612e-05
-3.87616e-06
8.19303e-05
-8.52942e-07
2.20468e-06
8.21364e-05
8.49519e-05
-2.28611e-05
-8.5931e-05
8.40947e-05
-2.02945e-05
8.3362e-05
-1.7667e-05
8.27561e-05
-1.49842e-05
8.22791e-05
-1.2251e-05
8.19327e-05
-9.47192e-06
8.17187e-05
-6.65194e-06
8.16384e-05
-3.79588e-06
8.16932e-05
-9.07698e-07
2.01331e-06
8.18846e-05
8.48222e-05
-2.18725e-05
-8.58108e-05
8.39549e-05
-1.94272e-05
8.32115e-05
-1.69237e-05
8.25945e-05
-1.43671e-05
8.21058e-05
-1.17623e-05
8.17473e-05
-9.11346e-06
8.15207e-05
-6.42536e-06
8.14275e-05
-3.70263e-06
8.14689e-05
-9.49099e-07
1.8357e-06
8.16465e-05
8.46976e-05
-2.08752e-05
-8.56949e-05
8.38211e-05
-1.85507e-05
8.3068e-05
-1.61706e-05
8.24407e-05
-1.37398e-05
8.19412e-05
-1.12628e-05
8.15716e-05
-8.74379e-06
8.13334e-05
-6.18715e-06
8.12281e-05
-3.59735e-06
8.12571e-05
-9.78076e-07
1.67093e-06
8.14218e-05
8.45785e-05
-1.98702e-05
-8.55835e-05
8.36936e-05
-1.76658e-05
8.29316e-05
-1.54085e-05
8.22948e-05
-1.31031e-05
8.17855e-05
-1.07535e-05
8.14055e-05
-8.3638e-06
8.11566e-05
-5.93819e-06
8.10401e-05
-3.48091e-06
8.10575e-05
-9.95498e-07
1.51812e-06
8.12103e-05
8.4465e-05
-1.8858e-05
-8.54772e-05
8.35725e-05
-1.67733e-05
8.28023e-05
-1.46384e-05
8.2157e-05
-1.24577e-05
8.16385e-05
-1.02351e-05
8.1249e-05
-7.97427e-06
8.09901e-05
-5.67928e-06
8.08633e-05
-3.35412e-06
8.087e-05
-1.00219e-06
1.37646e-06
8.10117e-05
8.43574e-05
-1.78394e-05
-8.5376e-05
8.34579e-05
-1.58738e-05
8.26803e-05
-1.38608e-05
8.20271e-05
-1.18044e-05
8.15003e-05
-9.70831e-06
8.1102e-05
-7.57596e-06
8.08339e-05
-5.41117e-06
8.06975e-05
-3.21775e-06
8.06942e-05
-9.98906e-07
1.24517e-06
8.08255e-05
8.42558e-05
-1.68149e-05
-8.52803e-05
8.335e-05
-1.4968e-05
8.25656e-05
-1.30764e-05
8.19051e-05
-1.11439e-05
8.13707e-05
-9.17385e-06
8.09642e-05
-7.16955e-06
8.06877e-05
-5.13458e-06
8.05424e-05
-3.07251e-06
8.05299e-05
-9.86381e-07
1.12351e-06
8.06515e-05
8.41604e-05
-1.57852e-05
-8.51901e-05
8.32488e-05
-1.40564e-05
8.24582e-05
-1.22858e-05
8.17911e-05
-1.04768e-05
8.12496e-05
-8.63234e-06
8.08357e-05
-6.7557e-06
8.05513e-05
-4.85015e-06
8.03979e-05
-2.91906e-06
8.03768e-05
-9.65294e-07
1.01078e-06
8.04895e-05
8.40711e-05
-1.47507e-05
-8.51056e-05
8.31544e-05
-1.31397e-05
8.23582e-05
-1.14896e-05
8.16849e-05
-9.80355e-06
8.1137e-05
-8.08438e-06
8.07163e-05
-6.335e-06
8.04246e-05
-4.55851e-06
8.02636e-05
-2.75804e-06
8.02346e-05
-9.36288e-07
9.06321e-07
8.03391e-05
8.39881e-05
-1.3712e-05
-8.50269e-05
8.30667e-05
-1.22183e-05
8.22653e-05
-1.06883e-05
8.15866e-05
-9.12483e-06
8.10328e-05
-7.53051e-06
8.06058e-05
-5.90802e-06
8.03075e-05
-4.26023e-06
8.01395e-05
-2.59005e-06
8.01032e-05
-8.99976e-07
8.0951e-07
8.02e-05
8.39114e-05
-1.26694e-05
-8.4954e-05
8.29857e-05
-1.12926e-05
8.21798e-05
-9.88235e-06
8.1496e-05
-8.4411e-06
8.09368e-05
-6.97126e-06
8.05041e-05
-5.47531e-06
8.01997e-05
-3.95587e-06
8.00253e-05
-2.41564e-06
7.99823e-05
-8.56938e-07
7.19744e-07
8.0072e-05
8.38409e-05
-1.16234e-05
-8.48869e-05
8.29115e-05
-1.03632e-05
8.21014e-05
-9.07224e-06
8.14131e-05
-7.75282e-06
8.0849e-05
-6.40711e-06
8.0411e-05
-5.03735e-06
8.01011e-05
-3.64595e-06
7.99208e-05
-2.23536e-06
7.98716e-05
-8.07728e-07
6.36449e-07
7.99549e-05
8.37768e-05
-1.05744e-05
-8.48258e-05
8.2844e-05
-9.43037e-06
8.20301e-05
-8.2584e-06
8.13378e-05
-7.06046e-06
8.07692e-05
-5.83854e-06
8.03265e-05
-4.59464e-06
8.00115e-05
-3.33096e-06
7.98259e-05
-2.04972e-06
7.9771e-05
-7.52875e-07
5.59074e-07
7.98484e-05
8.37189e-05
-9.52283e-06
-8.47705e-05
8.27831e-05
-8.4946e-06
8.19659e-05
-7.44124e-06
8.12699e-05
-6.36445e-06
8.06974e-05
-5.26597e-06
8.02503e-05
-4.14763e-06
7.99308e-05
-3.01137e-06
7.97402e-05
-1.8592e-06
7.96803e-05
-6.92889e-07
4.87091e-07
7.97522e-05
8.36671e-05
-8.46898e-06
-8.4721e-05
8.27288e-05
-7.55625e-06
8.19087e-05
-6.62117e-06
8.12094e-05
-5.66519e-06
8.06333e-05
-4.68985e-06
8.01824e-05
-3.69677e-06
7.98587e-05
-2.68765e-06
7.96638e-05
-1.66429e-06
7.95992e-05
-6.2826e-07
4.19986e-07
7.96663e-05
8.36215e-05
-7.41323e-06
-8.46773e-05
8.2681e-05
-6.61569e-06
8.18583e-05
-5.79856e-06
8.11562e-05
-4.96308e-06
8.0577e-05
-4.11058e-06
8.01227e-05
-3.24247e-06
7.97952e-05
-2.36023e-06
7.95964e-05
-1.46543e-06
7.95276e-05
-5.59464e-07
3.5726e-07
7.95903e-05
8.3582e-05
-6.35596e-06
-8.46392e-05
8.26396e-05
-5.67329e-06
8.18148e-05
-4.97379e-06
8.11102e-05
-4.25851e-06
8.05282e-05
-3.52856e-06
8.00709e-05
-2.78514e-06
7.97402e-05
-2.02953e-06
7.95378e-05
-1.26308e-06
7.94653e-05
-4.86965e-07
2.98424e-07
7.95242e-05
8.35484e-05
-5.29752e-06
-8.46068e-05
8.26045e-05
-4.72941e-06
8.17779e-05
-4.14725e-06
8.10713e-05
-3.55186e-06
8.04869e-05
-2.94418e-06
8.00269e-05
-2.3252e-06
7.96934e-05
-1.69598e-06
7.9488e-05
-1.05766e-06
7.94122e-05
-4.11222e-07
2.42999e-07
7.94677e-05
8.35207e-05
-4.23826e-06
-8.45799e-05
8.25757e-05
-3.78442e-06
8.17477e-05
-3.31927e-06
8.10393e-05
-2.84349e-06
8.04529e-05
-2.35781e-06
7.99908e-05
-1.86302e-06
7.96548e-05
-1.35999e-06
7.94467e-05
-8.49612e-07
7.93682e-05
-3.32689e-07
1.90504e-07
7.94207e-05
8.34988e-05
-3.17855e-06
-8.45585e-05
8.2553e-05
-2.83865e-06
8.1724e-05
-2.49023e-06
8.10142e-05
-2.13376e-06
8.04262e-05
-1.76982e-06
7.99622e-05
-1.39901e-06
7.96242e-05
-1.02197e-06
7.9414e-05
-6.39369e-07
7.93331e-05
-2.51823e-07
1.40455e-07
7.93832e-05
8.34826e-05
-2.11873e-06
-8.45425e-05
8.25364e-05
-1.89245e-06
8.17066e-05
-1.66044e-06
8.09959e-05
-1.42303e-06
8.04067e-05
-1.1806e-06
7.99412e-05
-9.33555e-07
7.96016e-05
-6.82327e-07
7.93896e-05
-4.27373e-07
7.93069e-05
-1.69092e-07
9.23604e-08
7.9355e-05
8.34721e-05
-1.05911e-06
-8.45318e-05
8.25258e-05
-9.46138e-07
8.16956e-05
-8.30257e-07
8.09843e-05
-7.11652e-07
8.03942e-05
-5.90522e-07
7.99277e-05
-4.67071e-07
7.95869e-05
-3.41516e-07
7.93736e-05
-2.14085e-07
7.92895e-05
-8.49794e-08
4.57173e-08
7.93361e-05
8.34672e-05
-8.45263e-05
8.25211e-05
8.16908e-05
8.09792e-05
8.03886e-05
7.99216e-05
7.95801e-05
7.9366e-05
7.9281e-05
7.93267e-05
8.29947e-05
3.32228e-06
8.20111e-05
1.23331e-06
8.15337e-05
1.95045e-06
8.16891e-05
3.65687e-06
8.17248e-05
4.53051e-06
8.16279e-05
5.20698e-06
8.15171e-05
6.0298e-06
8.14089e-05
6.92546e-06
8.12947e-05
7.85474e-06
8.11778e-05
8.83804e-06
8.10673e-05
9.89337e-06
8.09723e-05
1.10301e-05
8.0903e-05
1.22572e-05
8.08718e-05
1.3584e-05
8.0894e-05
1.50194e-05
8.09881e-05
1.65699e-05
8.11769e-05
1.82372e-05
8.14924e-05
2.00096e-05
8.20007e-05
2.18383e-05
2.35626e-05
8.26778e-05
1.95229e-06
8.21401e-05
1.77103e-06
8.17405e-05
2.35006e-06
8.17969e-05
3.60046e-06
8.18202e-05
4.50726e-06
8.17569e-05
5.27026e-06
8.16827e-05
6.10401e-06
8.16132e-05
6.99493e-06
8.15443e-05
7.92361e-06
8.14798e-05
8.9026e-06
8.14278e-05
9.94537e-06
8.13975e-05
1.10604e-05
8.13993e-05
1.22553e-05
8.14459e-05
1.35374e-05
8.15526e-05
1.49127e-05
8.1738e-05
1.63845e-05
8.20253e-05
1.79499e-05
8.24434e-05
1.95915e-05
8.3028e-05
2.12537e-05
2.27972e-05
8.19841e-05
1.31123e-06
8.19238e-05
1.83133e-06
8.17564e-05
2.51749e-06
8.17917e-05
3.56521e-06
8.18302e-05
4.46875e-06
8.18172e-05
5.28323e-06
8.17907e-05
6.13048e-06
8.17663e-05
7.01937e-06
8.17456e-05
7.94434e-06
8.17335e-05
8.91466e-06
8.17381e-05
9.94074e-06
8.17686e-05
1.103e-05
8.18353e-05
1.21886e-05
8.19507e-05
1.3422e-05
8.21294e-05
1.4734e-05
8.23887e-05
1.61252e-05
8.27488e-05
1.75898e-05
8.32317e-05
1.91087e-05
8.38574e-05
2.0628e-05
2.20137e-05
8.16777e-05
9.98316e-07
8.17138e-05
1.79516e-06
8.16785e-05
2.55287e-06
8.17373e-05
3.50638e-06
8.18009e-05
4.40515e-06
8.18336e-05
5.25051e-06
8.18547e-05
6.10942e-06
8.18765e-05
6.9975e-06
8.19039e-05
7.91701e-06
8.19426e-05
8.87587e-06
8.20009e-05
9.88249e-06
8.20876e-05
1.09432e-05
8.22131e-05
1.20632e-05
8.2389e-05
1.32461e-05
8.2629e-05
1.44941e-05
8.29485e-05
1.58057e-05
8.33645e-05
1.71738e-05
8.38945e-05
1.85787e-05
8.45527e-05
1.99697e-05
2.12202e-05
8.15271e-05
8.52839e-07
8.15813e-05
1.74102e-06
8.16071e-05
2.52706e-06
8.16809e-05
3.43254e-06
8.17628e-05
4.32328e-06
8.18305e-05
5.18281e-06
8.1892e-05
6.04789e-06
8.19559e-05
6.93361e-06
8.20275e-05
7.8454e-06
8.21131e-05
8.79029e-06
8.22203e-05
9.77527e-06
8.23578e-05
1.08057e-05
8.25353e-05
1.18857e-05
8.27638e-05
1.30177e-05
8.30554e-05
1.42024e-05
8.34239e-05
1.54372e-05
8.38834e-05
1.67142e-05
8.44481e-05
1.80141e-05
8.51281e-05
1.92897e-05
2.04228e-05
8.14626e-05
7.86533e-07
8.15125e-05
1.69121e-06
8.15609e-05
2.47858e-06
8.16406e-05
3.35284e-06
8.17332e-05
4.23072e-06
8.18247e-05
5.09135e-06
8.19172e-05
5.95537e-06
8.20159e-05
6.83489e-06
8.21256e-05
7.73572e-06
8.2252e-05
8.66391e-06
8.24021e-05
9.62516e-06
8.25839e-05
1.06239e-05
8.28063e-05
1.16633e-05
8.30793e-05
1.27447e-05
8.34137e-05
1.38679e-05
8.38214e-05
1.50295e-05
8.43144e-05
1.62212e-05
8.49038e-05
1.74246e-05
8.55974e-05
1.85962e-05
1.96252e-05
8.14426e-05
7.5401e-07
8.14847e-05
1.64913e-06
8.15393e-05
2.42394e-06
8.16201e-05
3.27201e-06
8.17182e-05
4.13267e-06
8.18247e-05
4.98481e-06
8.19394e-05
5.84063e-06
8.20653e-05
6.70908e-06
8.22059e-05
7.59511e-06
8.23662e-05
8.50357e-06
8.25524e-05
9.43899e-06
8.27715e-05
1.04048e-05
8.30315e-05
1.14032e-05
8.33413e-05
1.2435e-05
8.37103e-05
1.34989e-05
8.41487e-05
1.45911e-05
8.46665e-05
1.57034e-05
8.52728e-05
1.68184e-05
8.59733e-05
1.78956e-05
1.88317e-05
8.1443e-05
7.34382e-07
8.14803e-05
1.61184e-06
8.1536e-05
2.3682e-06
8.16165e-05
3.19156e-06
8.17173e-05
4.03188e-06
8.18332e-05
4.86888e-06
8.19634e-05
5.71043e-06
8.21094e-05
6.56302e-06
8.22742e-05
7.43037e-06
8.24617e-05
8.3161e-06
8.2677e-05
9.2236e-06
8.29265e-05
1.01554e-05
8.3217e-05
1.11128e-05
8.35561e-05
1.20958e-05
8.39522e-05
1.31028e-05
8.44138e-05
1.41296e-05
8.49491e-05
1.51681e-05
8.55655e-05
1.62019e-05
8.62674e-05
1.71937e-05
1.80467e-05
8.14522e-05
7.18624e-07
8.1488e-05
1.57598e-06
8.15443e-05
2.31197e-06
8.16246e-05
3.11126e-06
8.17272e-05
3.92926e-06
8.18493e-05
4.74674e-06
8.19903e-05
5.56945e-06
8.21512e-05
6.40215e-06
8.23342e-05
7.24737e-06
8.25426e-05
8.10766e-06
8.27808e-05
8.98537e-06
8.30541e-05
9.88211e-06
8.33683e-05
1.07985e-05
8.37301e-05
1.1734e-05
8.41464e-05
1.26865e-05
8.46244e-05
1.36516e-05
8.51709e-05
1.46216e-05
8.57918e-05
1.5581e-05
8.64902e-05
1.64953e-05
1.7274e-05
8.14648e-05
7.03096e-07
8.15014e-05
1.53939e-06
8.15587e-05
2.25464e-06
8.16397e-05
3.03026e-06
8.17441e-05
3.82483e-06
8.18708e-05
4.62008e-06
8.20195e-05
5.42074e-06
8.21912e-05
6.23045e-06
8.23877e-05
7.05082e-06
8.26119e-05
7.88347e-06
8.28674e-05
8.72987e-06
8.31586e-05
9.5909e-06
8.34906e-05
1.04666e-05
8.38689e-05
1.13558e-05
8.42993e-05
1.22561e-05
8.47878e-05
1.31631e-05
8.534e-05
1.40694e-05
8.59605e-05
1.49605e-05
8.66515e-05
1.58044e-05
1.65166e-05
8.14784e-05
6.86541e-07
8.15167e-05
1.50107e-06
8.15758e-05
2.1956e-06
8.16582e-05
2.94778e-06
8.17648e-05
3.71829e-06
8.18951e-05
4.48971e-06
8.20496e-05
5.26625e-06
8.22292e-05
6.05084e-06
8.24357e-05
6.84438e-06
8.26714e-05
7.64777e-06
8.29394e-05
8.46182e-06
8.32436e-05
9.28675e-06
8.35881e-05
1.01221e-05
8.39775e-05
1.09663e-05
8.44169e-05
1.18168e-05
8.49109e-05
1.26691e-05
8.54641e-05
1.35161e-05
8.60801e-05
1.43445e-05
8.67601e-05
1.51243e-05
1.5777e-05
8.1492e-05
6.68704e-07
8.15323e-05
1.46072e-06
8.15934e-05
2.13453e-06
8.16778e-05
2.86337e-06
8.17866e-05
3.60948e-06
8.19202e-05
4.35616e-06
8.20791e-05
5.10732e-06
8.22645e-05
5.8654e-06
8.24781e-05
6.63082e-06
8.27219e-05
7.40394e-06
8.29987e-05
8.18503e-06
8.33116e-05
8.97384e-06
8.36643e-05
9.76945e-06
8.40604e-05
1.05701e-05
8.45042e-05
1.1373e-05
8.49994e-05
1.21739e-05
8.55497e-05
1.29658e-05
8.61579e-05
1.37364e-05
8.68242e-05
1.4458e-05
1.50573e-05
8.15051e-05
6.49708e-07
8.15474e-05
1.41845e-06
8.16105e-05
2.07142e-06
8.1697e-05
2.77688e-06
8.1808e-05
3.49839e-06
8.19444e-05
4.21985e-06
8.21068e-05
4.94492e-06
8.22964e-05
5.67571e-06
8.2515e-05
6.41229e-06
8.27643e-05
7.15464e-06
8.30467e-05
7.9026e-06
8.3365e-05
8.65557e-06
8.37221e-05
9.41234e-06
8.41212e-05
1.0171e-05
8.45657e-05
1.09286e-05
8.50587e-05
1.16809e-05
8.56029e-05
1.24216e-05
8.62004e-05
1.31389e-05
8.6851e-05
1.38073e-05
1.43587e-05
8.15177e-05
6.29782e-07
8.15616e-05
1.37457e-06
8.16265e-05
2.00648e-06
8.17149e-05
2.68847e-06
8.18281e-05
3.38525e-06
8.19667e-05
4.08124e-06
8.21317e-05
4.7799e-06
8.23244e-05
5.48305e-06
8.25461e-05
6.19052e-06
8.27988e-05
6.90198e-06
8.30844e-05
7.617e-06
8.34053e-05
8.3347e-06
8.37639e-05
9.05368e-06
8.4163e-05
9.77185e-06
8.46053e-05
1.04863e-05
8.50931e-05
1.11931e-05
8.56287e-05
1.1886e-05
8.62134e-05
1.25542e-05
8.68466e-05
1.31741e-05
1.36824e-05
8.15297e-05
6.09165e-07
8.15748e-05
1.32941e-06
8.16413e-05
1.94005e-06
8.17313e-05
2.59844e-06
8.18461e-05
3.2704e-06
8.19865e-05
3.94086e-06
8.21534e-05
4.61302e-06
8.2348e-05
5.28848e-06
8.25716e-05
5.96687e-06
8.28259e-05
6.64765e-06
8.31127e-05
7.33019e-06
8.3434e-05
8.01343e-06
8.37919e-05
8.69581e-06
8.41885e-05
9.37521e-06
8.46261e-05
1.00488e-05
8.51066e-05
1.07126e-05
8.56316e-05
1.1361e-05
8.62019e-05
1.19839e-05
8.68166e-05
1.25594e-05
1.30288e-05
8.15411e-05
5.88068e-07
8.15871e-05
1.28333e-06
8.16547e-05