/*--------------------------------*- C++ -*----------------------------------*\
  =========                 |
  \\      /  F ield         | OpenFOAM: The Open Source CFD Toolbox
   \\    /   O peration     | Website:  https://openfoam.org
    \\  /    A nd           | Version:  6
     \\/     M anipulation  |
\*---------------------------------------------------------------------------*/
FoamFile
{
    version     2.0;
    format      ascii;
    class       volScalarField;
    location    "1.4";
    object      p;
}
// * * * * * * * * * * * * * * * * * * * * * * * * * * * * * * * * * * * * * //

dimensions      [0 2 -2 0 0 0 0];

internalField   nonuniform List<scalar> 
5600
(
993.666
995.428
996.727
996.739
996.593
996.574
996.595
996.607
996.614
996.621
996.629
996.638
996.648
996.658
996.67
996.682
996.696
996.711
996.728
996.746
993.592
995.46
996.753
996.739
996.591
996.575
996.596
996.607
996.614
996.62
996.628
996.637
996.647
996.657
996.669
996.681
996.695
996.71
996.727
996.745
993.55
995.472
996.765
996.739
996.589
996.574
996.595
996.606
996.612
996.618
996.626
996.635
996.644
996.654
996.665
996.677
996.69
996.704
996.72
996.737
993.504
995.479
996.775
996.74
996.588
996.573
996.594
996.604
996.609
996.615
996.622
996.63
996.639
996.648
996.658
996.669
996.681
996.694
996.708
996.723
993.449
995.485
996.785
996.739
996.585
996.571
996.591
996.601
996.605
996.61
996.616
996.623
996.631
996.639
996.648
996.658
996.668
996.679
996.691
996.703
993.387
995.493
996.797
996.739
996.581
996.568
996.588
996.596
996.599
996.603
996.609
996.615
996.621
996.628
996.636
996.644
996.652
996.661
996.669
996.678
993.32
995.504
996.811
996.737
996.576
996.564
996.583
996.59
996.592
996.595
996.599
996.604
996.609
996.615
996.621
996.627
996.632
996.638
996.644
996.648
993.249
995.519
996.827
996.734
996.569
996.558
996.577
996.582
996.583
996.585
996.588
996.592
996.596
996.599
996.603
996.607
996.61
996.613
996.615
996.615
993.165
995.545
996.846
996.727
996.56
996.551
996.569
996.573
996.573
996.574
996.576
996.578
996.581
996.583
996.585
996.586
996.587
996.586
996.584
996.58
992.996
995.615
996.874
996.706
996.546
996.545
996.561
996.563
996.562
996.562
996.563
996.564
996.565
996.566
996.566
996.565
996.563
996.559
996.553
996.545
996.77
996.802
996.838
996.879
996.926
996.98
997.041
997.107
997.18
997.356
996.767
996.797
996.833
996.873
996.919
996.971
997.029
997.093
997.162
997.337
996.757
996.786
996.82
996.858
996.902
996.951
997.005
997.065
997.129
997.298
996.74
996.766
996.798
996.833
996.873
996.918
996.968
997.021
997.079
997.239
996.715
996.738
996.767
996.799
996.835
996.875
996.918
996.964
997.013
997.162
996.684
996.703
996.729
996.758
996.788
996.822
996.857
996.895
996.934
997.068
996.648
996.663
996.686
996.71
996.735
996.761
996.789
996.816
996.845
996.961
996.608
996.619
996.639
996.658
996.677
996.696
996.714
996.731
996.748
996.844
996.566
996.573
996.589
996.603
996.616
996.627
996.637
996.645
996.65
996.721
996.522
996.527
996.539
996.548
996.554
996.558
996.558
996.554
996.545
996.593
996.484
996.492
996.497
996.498
996.495
996.486
996.468
996.441
996.41
996.445
996.443
996.448
996.446
996.44
996.429
996.41
996.381
996.342
996.3
996.313
996.4
996.399
996.391
996.379
996.361
996.333
996.296
996.248
996.199
996.188
996.354
996.348
996.335
996.316
996.291
996.256
996.211
996.156
996.1
996.069
996.307
996.296
996.277
996.253
996.222
996.18
996.128
996.068
996.007
995.958
996.259
996.244
996.221
996.192
996.155
996.109
996.052
995.987
995.923
995.857
996.213
996.194
996.167
996.134
996.093
996.042
995.982
995.915
995.849
995.769
996.169
996.146
996.116
996.08
996.036
995.983
995.921
995.853
995.786
995.693
996.128
996.102
996.07
996.032
995.987
995.933
995.871
995.803
995.736
995.632
996.091
996.063
996.03
995.991
995.944
995.89
995.829
995.762
995.694
995.582
996.479
996.438
996.395
996.351
996.307
996.263
996.221
996.181
996.143
996.11
996.466
996.426
996.385
996.345
996.304
996.264
996.225
996.189
996.154
996.123
996.449
996.411
996.373
996.337
996.3
996.264
996.228
996.195
996.164
996.135
996.434
996.398
996.364
996.33
996.296
996.263
996.231
996.201
996.172
996.146
996.42
996.388
996.355
996.324
996.294
996.263
996.234
996.206
996.18
996.155
996.408
996.378
996.348
996.32
996.291
996.263
996.236
996.211
996.186
996.163
996.397
996.369
996.342
996.315
996.289
996.264
996.239
996.215
996.192
996.17
996.388
996.361
996.336
996.312
996.288
996.264
996.241
996.218
996.197
996.177
996.379
996.355
996.331
996.308
996.286
996.264
996.242
996.222
996.202
996.183
996.371
996.348
996.327
996.306
996.285
996.264
996.244
996.225
996.206
996.188
996.364
996.343
996.323
996.303
996.283
996.264
996.246
996.227
996.21
996.193
996.358
996.338
996.319
996.301
996.282
996.264
996.247
996.23
996.213
996.197
996.352
996.333
996.316
996.299
996.281
996.265
996.248
996.232
996.216
996.201
996.347
996.329
996.313
996.297
996.281
996.265
996.249
996.234
996.219
996.205
996.342
996.326
996.31
996.295
996.28
996.265
996.25
996.236
996.222
996.208
996.337
996.322
996.308
996.293
996.279
996.265
996.251
996.237
996.224
996.211
996.333
996.319
996.305
996.292
996.278
996.265
996.252
996.239
996.226
996.213
996.33
996.316
996.303
996.29
996.278
996.265
996.252
996.24
996.228
996.216
996.326
996.314
996.301
996.289
996.277
996.265
996.253
996.241
996.23
996.218
996.323
996.311
996.3
996.288
996.276
996.265
996.253
996.242
996.231
996.22
996.32
996.309
996.298
996.287
996.276
996.265
996.254
996.243
996.232
996.222
996.318
996.307
996.296
996.286
996.275
996.265
996.254
996.244
996.234
996.224
996.315
996.305
996.295
996.285
996.275
996.265
996.255
996.245
996.235
996.225
996.313
996.303
996.294
996.284
996.274
996.264
996.255
996.245
996.236
996.227
996.311
996.302
996.292
996.283
996.274
996.264
996.255
996.246
996.237
996.228
996.309
996.3
996.291
996.282
996.273
996.264
996.255
996.246
996.238
996.229
996.307
996.298
996.29
996.281
996.273
996.264
996.256
996.247
996.239
996.23
996.305
996.297
996.289
996.281
996.272
996.264
996.256
996.247
996.239
996.231
996.304
996.296
996.288
996.28
996.272
996.264
996.256
996.248
996.24
996.232
996.302
996.295
996.287
996.279
996.272
996.264
996.256
996.248
996.24
996.233
996.301
996.293
996.286
996.279
996.271
996.264
996.256
996.248
996.241
996.233
996.299
996.292
996.285
996.278
996.271
996.263
996.256
996.249
996.241
996.234
996.298
996.291
996.285
996.278
996.27
996.263
996.256
996.249
996.242
996.235
996.297
996.29
996.284
996.277
996.27
996.263
996.256
996.249
996.242
996.235
996.296
996.29
996.283
996.277
996.27
996.263
996.256
996.249
996.243
996.236
996.295
996.289
996.283
996.276
996.27
996.263
996.256
996.25
996.243
996.236
996.294
996.288
996.282
996.276
996.269
996.263
996.256
996.25
996.243
996.237
996.293
996.287
996.281
996.275
996.269
996.263
996.256
996.25
996.244
996.237
996.293
996.287
996.281
996.275
996.269
996.263
996.256
996.25
996.244
996.237
996.292
996.286
996.28
996.275
996.269
996.262
996.256
996.25
996.244
996.238
996.291
996.286
996.28
996.274
996.268
996.262
996.256
996.25
996.244
996.238
996.291
996.285
996.28
996.274
996.268
996.262
996.256
996.25
996.244
996.238
996.29
996.285
996.279
996.274
996.268
996.262
996.256
996.25
996.244
996.238
996.29
996.285
996.279
996.274
996.268
996.262
996.256
996.25
996.244
996.239
996.29
996.284
996.279
996.273
996.268
996.262
996.256
996.25
996.245
996.239
996.289
996.284
996.279
996.273
996.268
996.262
996.256
996.25
996.245
996.239
996.289
996.284
996.278
996.273
996.268
996.262
996.256
996.25
996.245
996.239
996.289
996.284
996.278
996.273
996.267
996.262
996.256
996.25
996.245
996.239
996.289
996.284
996.278
996.273
996.267
996.262
996.256
996.25
996.245
996.239
996.289
996.283
996.278
996.273
996.267
996.262
996.256
996.25
996.245
996.239
992.641
995.806
996.93
996.659
996.525
996.539
996.552
996.55
996.548
996.547
996.547
996.546
996.545
996.543
996.54
996.537
996.531
996.524
996.512
996.495
992.485
995.874
996.933
996.629
996.513
996.535
996.544
996.541
996.538
996.537
996.536
996.534
996.532
996.529
996.526
996.521
996.514
996.505
996.493
996.476
992.425
995.877
996.921
996.612
996.504
996.527
996.536
996.532
996.529
996.527
996.525
996.523
996.52
996.517
996.512
996.507
996.499
996.49
996.478
996.462
992.392
995.87
996.912
996.599
996.494
996.519
996.527
996.523
996.519
996.517
996.515
996.512
996.509
996.505
996.5
996.493
996.485
996.476
996.464
996.448
992.369
995.862
996.904
996.588
996.484
996.51
996.518
996.513
996.51
996.508
996.505
996.502
996.498
996.493
996.487
996.48
996.472
996.462
996.45
996.435
992.35
995.854
996.896
996.579
996.475
996.501
996.509
996.504
996.501
996.498
996.495
996.491
996.487
996.482
996.476
996.468
996.46
996.45
996.438
996.424
992.332
995.845
996.888
996.57
996.466
996.492
996.5
996.495
996.492
996.489
996.485
996.481
996.477
996.471
996.465
996.457
996.449
996.439
996.427
996.413
992.314
995.835
996.881
996.561
996.457
996.484
996.492
996.487
996.483
996.48
996.476
996.472
996.467
996.461
996.455
996.447
996.438
996.428
996.417
996.403
992.297
995.827
996.873
996.553
996.449
996.475
996.483
996.478
996.474
996.471
996.467
996.463
996.457
996.452
996.445
996.437
996.428
996.419
996.407
996.395
992.28
995.818
996.867
996.545
996.441
996.467
996.475
996.47
996.466
996.462
996.459
996.454
996.449
996.443
996.436
996.428
996.419
996.41
996.399
996.387
992.263
995.809
996.86
996.538
996.433
996.46
996.467
996.462
996.458
996.454
996.45
996.446
996.44
996.434
996.427
996.42
996.411
996.402
996.391
996.379
992.246
995.801
996.853
996.53
996.425
996.452
996.46
996.454
996.45
996.447
996.442
996.438
996.432
996.426
996.419
996.412
996.403
996.394
996.384
996.372
992.23
995.792
996.847
996.523
996.418
996.445
996.452
996.447
996.443
996.439
996.435
996.43
996.425
996.419
996.412
996.404
996.396
996.387
996.377
996.366
992.214
995.785
996.841
996.516
996.411
996.438
996.445
996.44
996.436
996.432
996.428
996.423
996.417
996.412
996.405
996.398
996.389
996.381
996.371
996.361
992.199
995.777
996.835
996.51
996.404
996.431
996.439
996.433
996.429
996.425
996.421
996.416
996.411
996.405
996.398
996.391
996.383
996.375
996.365
996.355
992.184
995.769
996.829
996.503
996.397
996.424
996.432
996.427
996.422
996.419
996.414
996.41
996.404
996.398
996.392
996.385
996.377
996.369
996.36
996.35
992.17
995.762
996.824
996.497
996.391
996.418
996.426
996.42
996.416
996.412
996.408
996.403
996.398
996.392
996.386
996.379
996.372
996.364
996.355
996.346
992.156
995.755
996.818
996.491
996.385
996.412
996.42
996.414
996.41
996.406
996.402
996.398
996.392
996.387
996.381
996.374
996.367
996.359
996.351
996.342
992.143
995.749
996.813
996.486
996.379
996.406
996.414
996.409
996.404
996.401
996.397
996.392
996.387
996.382
996.376
996.369
996.362
996.354
996.346
996.338
992.13
995.742
996.809
996.48
996.373
996.401
996.409
996.403
996.399
996.395
996.391
996.387
996.382
996.376
996.371
996.364
996.358
996.35
996.343
996.334
992.118
995.736
996.804
996.475
996.368
996.395
996.403
996.398
996.394
996.39
996.386
996.382
996.377
996.372
996.366
996.36
996.353
996.346
996.339
996.331
992.106
995.73
996.799
996.47
996.363
996.39
996.398
996.393
996.389
996.385
996.382
996.377
996.372
996.367
996.362
996.356
996.349
996.343
996.335
996.328
992.095
995.725
996.795
996.465
996.358
996.385
996.394
996.388
996.384
996.381
996.377
996.373
996.368
996.363
996.358
996.352
996.346
996.339
996.332
996.325
992.084
995.719
996.791
996.461
996.353
996.381
996.389
996.384
996.38
996.376
996.373
996.369
996.364
996.359
996.354
996.348
996.342
996.336
996.329
996.322
992.074
995.714
996.787
996.456
996.349
996.377
996.385
996.379
996.375
996.372
996.369
996.365
996.36
996.355
996.35
996.345
996.339
996.333
996.326
996.32
992.065
995.71
996.783
996.452
996.345
996.372
996.381
996.375
996.371
996.368
996.365
996.361
996.357
996.352
996.347
996.342
996.336
996.33
996.324
996.317
992.055
995.705
996.78
996.448
996.341
996.368
996.377
996.372
996.368
996.365
996.361
996.357
996.353
996.349
996.344
996.339
996.333
996.327
996.321
996.315
992.047
995.701
996.777
996.445
996.337
996.365
996.373
996.368
996.364
996.361
996.358
996.354
996.35
996.345
996.341
996.336
996.331
996.325
996.319
996.313
992.039
995.697
996.773
996.441
996.333
996.361
996.37
996.364
996.361
996.358
996.355
996.351
996.347
996.343
996.338
996.333
996.328
996.323
996.317
996.311
992.031
995.693
996.771
996.438
996.33
996.358
996.366
996.361
996.357
996.355
996.351
996.348
996.344
996.34
996.335
996.331
996.326
996.321
996.315
996.309
992.024
995.689
996.768
996.435
996.327
996.355
996.363
996.358
996.355
996.352
996.349
996.345
996.341
996.337
996.333
996.328
996.324
996.318
996.313
996.308
992.017
995.686
996.765
996.432
996.324
996.352
996.36
996.355
996.352
996.349
996.346
996.343
996.339
996.335
996.331
996.326
996.322
996.317
996.311
996.306
992.01
995.682
996.763
996.429
996.321
996.349
996.358
996.353
996.349
996.347
996.344
996.34
996.337
996.333
996.329
996.324
996.32
996.315
996.31
996.305
992.004
995.679
996.76
996.426
996.319
996.347
996.355
996.35
996.347
996.344
996.341
996.338
996.334
996.331
996.327
996.322
996.318
996.313
996.308
996.303
991.999
995.676
996.758
996.424
996.316
996.344
996.353
996.348
996.344
996.342
996.339
996.336
996.332
996.329
996.325
996.321
996.316
996.312
996.307
996.302
991.993
995.674
996.756
996.422
996.314
996.342
996.351
996.346
996.342
996.34
996.337
996.334
996.33
996.327
996.323
996.319
996.315
996.31
996.306
996.301
991.988
995.671
996.754
996.42
996.312
996.34
996.349
996.344
996.34
996.338
996.335
996.332
996.329
996.325
996.321
996.318
996.313
996.309
996.304
996.3
991.984
995.669
996.752
996.418
996.31
996.338
996.347
996.342
996.339
996.336
996.334
996.33
996.327
996.324
996.32
996.316
996.312
996.308
996.303
996.299
991.98
995.667
996.751
996.416
996.308
996.336
996.345
996.34
996.337
996.335
996.332
996.329
996.326
996.322
996.319
996.315
996.311
996.307
996.302
996.298
991.976
995.665
996.749
996.414
996.306
996.335
996.344
996.339
996.335
996.333
996.331
996.328
996.324
996.321
996.318
996.314
996.31
996.306
996.302
996.297
991.972
995.663
996.748
996.413
996.305
996.333
996.342
996.337
996.334
996.332
996.329
996.326
996.323
996.32
996.316
996.313
996.309
996.305
996.301
996.296
991.969
995.662
996.747
996.412
996.304
996.332
996.341
996.336
996.333
996.331
996.328
996.325
996.322
996.319
996.316
996.312
996.308
996.304
996.3
996.296
991.966
995.66
996.746
996.411
996.303
996.331
996.34
996.335
996.332
996.33
996.327
996.324
996.321
996.318
996.315
996.311
996.307
996.303
996.299
996.295
991.963
995.659
996.745
996.41
996.302
996.33
996.339
996.334
996.331
996.329
996.326
996.323
996.32
996.317
996.314
996.31
996.307
996.303
996.299
996.295
991.961
995.657
996.744
996.409
996.301
996.329
996.338
996.333
996.33
996.328
996.326
996.323
996.32
996.317
996.313
996.31
996.306
996.302
996.298
996.294
991.96
995.656
996.744
996.409
996.3
996.329
996.337
996.333
996.33
996.327
996.325
996.322
996.319
996.316
996.313
996.309
996.306
996.302
996.298
996.294
991.961
995.654
996.743
996.409
996.3
996.328
996.337
996.332
996.329
996.327
996.325
996.322
996.319
996.316
996.312
996.309
996.305
996.302
996.298
996.294
991.967
995.651
996.744
996.41
996.3
996.327
996.337
996.332
996.329
996.327
996.324
996.321
996.318
996.315
996.312
996.309
996.305
996.301
996.297
996.293
991.997
995.634
996.743
996.414
996.3
996.326
996.336
996.332
996.328
996.326
996.324
996.321
996.318
996.315
996.312
996.308
996.305
996.301
996.297
996.293
992.098
995.567
996.729
996.425
996.3
996.325
996.336
996.332
996.328
996.326
996.324
996.321
996.318
996.315
996.312
996.308
996.305
996.301
996.297
996.293
995.939
995.902
995.869
995.84
995.808
995.775
995.739
995.701
995.662
995.593
995.944
995.907
995.873
995.844
995.813
995.781
995.747
995.711
995.675
995.614
995.938
995.906
995.875
995.848
995.82
995.79
995.758
995.724
995.691
995.637
995.931
995.904
995.876
995.851
995.824
995.796
995.766
995.736
995.705
995.661
995.925
995.902
995.876
995.853
995.828
995.802
995.774
995.746
995.719
995.684
995.92
995.9
995.877
995.855
995.832
995.807
995.782
995.756
995.732
995.705
995.916
995.898
995.878
995.858
995.836
995.813
995.788
995.765
995.743
995.723
995.913
995.898
995.879
995.86
995.839
995.817
995.794
995.771
995.752
995.738
995.913
995.898
995.881
995.862
995.842
995.82
995.798
995.776
995.758
995.747
995.913
995.899
995.882
995.864
995.843
995.822
995.8
995.779
995.761
995.752
995.923
995.932
995.941
995.95
995.959
995.968
995.976
995.985
995.993
996.001
996.008
996.016
996.023
996.029
996.036
996.042
996.048
996.054
996.06
996.065
996.07
996.075
996.08
996.084
996.088
996.093
996.097
996.1
996.104
996.108
996.111
996.114
996.117
996.121
996.124
996.126
996.129
996.132
996.135
996.138
996.141
996.143
996.146
996.149
996.152
996.155
996.158
996.162
996.165
996.169
995.92
995.928
995.938
995.948
995.957
995.966
995.974
995.983
995.991
995.999
996.007
996.014
996.021
996.028
996.035
996.041
996.047
996.053
996.059
996.064
996.069
996.074
996.079
996.083
996.088
996.092
996.096
996.1
996.104
996.107
996.111
996.114
996.117
996.12
996.123
996.126
996.129
996.132
996.135
996.137
996.14
996.143
996.146
996.149
996.151
996.154
996.158
996.161
996.165
996.168
995.915
995.924
995.934
995.945
995.954
995.963
995.972
995.981
995.989
995.997
996.005
996.012
996.02
996.027
996.033
996.04
996.046
996.052
996.058
996.063
996.068
996.073
996.078
996.083
996.087
996.091
996.095
996.099
996.103
996.107
996.11
996.113
996.117
996.12
996.123
996.126
996.129
996.131
996.134
996.137
996.14
996.142
996.145
996.148
996.151
996.154
996.156
996.16
996.163
996.166
995.91
995.918
995.93
995.941
995.951
995.96
995.969
995.978
995.987
995.995
996.003
996.011
996.018
996.025
996.032
996.039
996.045
996.051
996.057
996.062
996.067
996.072
996.077
996.082
996.086
996.091
996.095
996.099
996.102
996.106
996.109
996.113
996.116
996.119
996.122
996.125
996.128
996.131
996.133
996.136
996.139
996.141
996.144
996.147
996.149
996.152
996.155
996.158
996.161
996.164
995.904
995.912
995.926
995.937
995.948
995.957
995.967
995.976
995.985
995.993
996.002
996.009
996.017
996.024
996.031
996.037
996.044
996.05
996.056
996.061
996.067
996.072
996.076
996.081
996.086
996.09
996.094
996.098
996.102
996.105
996.109
996.112
996.115
996.118
996.121
996.124
996.127
996.13
996.133
996.135
996.138
996.14
996.143
996.145
996.148
996.15
996.153
996.155
996.158
996.161
995.899
995.906
995.921
995.934
995.945
995.955
995.965
995.974
995.983
995.992
996
996.008
996.016
996.023
996.03
996.036
996.043
996.049
996.055
996.06
996.066
996.071
996.076
996.08
996.085
996.089
996.093
996.097
996.101
996.104
996.108
996.111
996.114
996.117
996.12
996.123
996.126
996.129
996.131
996.134
996.136
996.139
996.141
996.144
996.146
996.148
996.15
996.153
996.155
996.157
995.895
995.9
995.917
995.931
995.942
995.953
995.963
995.973
995.982
995.991
995.999
996.007
996.015
996.022
996.029
996.036
996.042
996.048
996.054
996.059
996.065
996.07
996.075
996.079
996.084
996.088
996.092
996.096
996.1
996.104
996.107
996.11
996.113
996.116
996.119
996.122
996.125
996.128
996.13
996.133
996.135
996.137
996.139
996.141
996.144
996.146
996.147
996.149
996.151
996.153
995.892
995.897
995.916
995.93
995.941
995.952
995.962
995.972
995.981
995.99
995.999
996.006
996.014
996.021
996.028
996.035
996.041
996.047
996.053
996.059
996.064
996.069
996.074
996.079
996.083
996.087
996.091
996.095
996.099
996.103
996.106
996.109
996.112
996.115
996.118
996.121
996.124
996.126
996.129
996.131
996.133
996.135
996.137
996.139
996.141
996.143
996.144
996.146
996.147
996.149
995.89
995.896
995.916
995.931
995.942
995.953
995.963
995.973
995.982
995.99
995.999
996.007
996.014
996.021
996.028
996.035
996.041
996.047
996.053
996.058
996.063
996.068
996.073
996.078
996.082
996.086
996.09
996.094
996.098
996.101
996.105
996.108
996.111
996.114
996.117
996.119
996.122
996.124
996.127
996.129
996.131
996.133
996.135
996.136
996.138
996.139
996.141
996.142
996.143
996.144
995.891
995.903
995.923
995.937
995.948
995.958
995.967
995.976
995.985
995.993
996.001
996.008
996.015
996.022
996.029
996.035
996.041
996.047
996.053
996.058
996.063
996.068
996.073
996.077
996.082
996.086
996.09
996.093
996.097
996.1
996.104
996.107
996.11
996.113
996.115
996.118
996.12
996.123
996.125
996.127
996.129
996.13
996.132
996.134
996.135
996.136
996.137
996.138
996.138
996.139
995.946
995.94
995.941
995.947
995.956
995.964
995.972
995.98
995.988
995.996
996.003
996.011
996.018
996.024
996.031
996.037
996.043
996.048
996.054
996.059
996.064
996.069
996.073
996.078
996.082
996.086
996.09
996.093
996.097
996.1
996.104
996.107
996.109
996.112
996.115
996.117
996.119
996.122
996.124
996.125
996.127
996.129
996.13
996.131
996.132
996.133
996.134
996.134
996.135
996.135
995.96
995.957
995.955
995.96
995.966
995.973
995.98
995.987
995.994
996.001
996.008
996.015
996.021
996.027
996.033
996.039
996.045
996.05
996.055
996.06
996.065
996.07
996.074
996.078
996.082
996.086
996.09
996.094
996.097
996.1
996.103
996.106
996.109
996.111
996.114
996.116
996.118
996.12
996.122
996.124
996.126
996.127
996.128
996.129
996.13
996.131
996.131
996.131
996.131
996.131
995.968
995.968
995.968
995.971
995.976
995.982
995.988
995.994
996.001
996.007
996.013
996.019
996.025
996.031
996.037
996.042
996.047
996.052
996.057
996.062
996.067
996.071
996.075
996.079
996.083
996.087
996.09
996.094
996.097
996.1
996.103
996.106
996.108
996.111
996.113
996.115
996.117
996.119
996.121
996.123
996.124
996.125
996.126
996.127
996.128
996.128
996.129
996.129
996.128
996.128
995.977
995.979
995.979
995.982
995.986
995.991
995.996
996.002
996.007
996.013
996.018
996.024
996.029
996.035
996.04
996.045
996.05
996.055
996.059
996.064
996.068
996.072
996.076
996.08
996.084
996.087
996.091
996.094
996.097
996.1
996.103
996.105
996.108
996.11
996.112
996.114
996.116
996.118
996.12
996.121
996.122
996.124
996.124
996.125
996.126
996.126
996.126
996.126
996.125
996.124
995.987
995.989
995.99
995.992
995.996
996
996.004
996.009
996.014
996.019
996.024
996.029
996.034
996.039
996.044
996.048
996.053
996.057
996.062
996.066
996.07
996.074
996.078
996.081
996.085
996.088
996.091
996.094
996.097
996.1
996.103
996.105
996.107
996.11
996.112
996.114
996.115
996.117
996.118
996.12
996.121
996.122
996.123
996.123
996.123
996.124
996.123
996.123
996.122
996.121
995.997
995.999
996
996.002
996.005
996.009
996.012
996.016
996.021
996.025
996.03
996.034
996.039
996.043
996.047
996.052
996.056
996.06
996.064
996.068
996.072
996.075
996.079
996.082
996.086
996.089
996.092
996.095
996.097
996.1
996.102
996.105
996.107
996.109
996.111
996.113
996.114
996.116
996.117
996.118
996.119
996.12
996.121
996.121
996.121
996.121
996.121
996.12
996.119
996.118
996.008
996.009
996.01
996.012
996.014
996.017
996.02
996.024
996.028
996.031
996.035
996.039
996.043
996.047
996.051
996.055
996.059
996.063
996.066
996.07
996.074
996.077
996.08
996.083
996.087
996.089
996.092
996.095
996.098
996.1
996.102
996.105
996.107
996.109
996.11
996.112
996.113
996.115
996.116
996.117
996.118
996.118
996.119
996.119
996.119
996.119
996.118
996.118
996.117
996.115
996.018
996.019
996.02
996.021
996.023
996.026
996.028
996.031
996.034
996.038
996.041
996.044
996.048
996.052
996.055
996.059
996.062
996.066
996.069
996.072
996.076
996.079
996.082
996.085
996.088
996.09
996.093
996.095
996.098
996.1
996.102
996.104
996.106
996.108
996.11
996.111
996.113
996.114
996.115
996.116
996.116
996.117
996.117
996.117
996.117
996.117
996.116
996.115
996.114
996.112
996.029
996.029
996.029
996.031
996.032
996.034
996.036
996.038
996.041
996.044
996.047
996.05
996.053
996.056
996.059
996.062
996.066
996.069
996.072
996.075
996.078
996.081
996.083
996.086
996.089
996.091
996.094
996.096
996.098
996.1
996.102
996.104
996.106
996.108
996.109
996.11
996.112
996.113
996.114
996.114
996.115
996.115
996.116
996.116
996.115
996.115
996.114
996.113
996.112
996.11
996.039
996.038
996.039
996.04
996.041
996.042
996.044
996.046
996.048
996.05
996.052
996.055
996.058
996.06
996.063
996.066
996.069
996.072
996.074
996.077
996.08
996.082
996.085
996.088
996.09
996.092
996.095
996.097
996.099
996.101
996.102
996.104
996.106
996.107
996.109
996.11
996.111
996.112
996.113
996.113
996.114
996.114
996.114
996.114
996.114
996.113
996.112
996.111
996.11
996.108
996.049
996.048
996.048
996.048
996.049
996.05
996.051
996.053
996.054
996.056
996.058
996.06
996.063
996.065
996.067
996.07
996.072
996.075
996.077
996.08
996.082
996.084
996.087
996.089
996.091
996.093
996.095
996.097
996.099
996.101
996.103
996.104
996.106
996.107
996.108
996.109
996.11
996.111
996.112
996.112
996.113
996.113
996.113
996.113
996.112
996.111
996.111
996.109
996.108
996.106
996.059
996.057
996.057
996.057
996.057
996.057
996.058
996.059
996.061
996.062
996.064
996.065
996.067
996.069
996.071
996.074
996.076
996.078
996.08
996.082
996.084
996.086
996.089
996.091
996.093
996.094
996.096
996.098
996.1
996.101
996.103
996.104
996.106
996.107
996.108
996.109
996.11
996.11
996.111
996.111
996.112
996.112
996.112
996.111
996.111
996.11
996.109
996.108
996.106
996.104
996.068
996.066
996.065
996.065
996.065
996.065
996.065
996.066
996.067
996.068
996.069
996.071
996.072
996.074
996.075
996.077
996.079
996.081
996.083
996.085
996.087
996.089
996.09
996.092
996.094
996.096
996.097
996.099
996.1
996.102
996.103
996.104
996.106
996.107
996.108
996.108
996.109
996.11
996.11
996.111
996.111
996.111
996.111
996.11
996.11
996.109
996.108
996.107
996.105
996.103
996.077
996.074
996.073
996.073
996.072
996.072
996.072
996.072
996.073
996.074
996.074
996.075
996.077
996.078
996.079
996.081
996.082
996.084
996.086
996.087
996.089
996.091
996.092
996.094
996.095
996.097
996.098
996.1
996.101
996.102
996.104
996.105
996.106
996.107
996.107
996.108
996.109
996.109
996.11
996.11
996.11
996.11
996.11
996.109
996.109
996.108
996.107
996.105
996.104
996.102
996.085
996.082
996.081
996.08
996.079
996.079
996.078
996.078
996.079
996.079
996.08
996.08
996.081
996.082
996.083
996.085
996.086
996.087
996.089
996.09
996.091
996.093
996.094
996.096
996.097
996.098
996.099
996.101
996.102
996.103
996.104
996.105
996.106
996.107
996.107
996.108
996.109
996.109
996.109
996.109
996.109
996.109
996.109
996.108
996.108
996.107
996.106
996.105
996.103
996.101
996.093
996.09
996.088
996.087
996.086
996.085
996.084
996.084
996.084
996.084
996.084
996.085
996.086
996.086
996.087
996.088
996.089
996.09
996.091
996.092
996.094
996.095
996.096
996.097
996.098
996.1
996.101
996.102
996.103
996.104
996.105
996.105
996.106
996.107
996.107
996.108
996.108
996.109
996.109
996.109
996.109
996.109
996.108
996.108
996.107
996.106
996.105
996.104
996.102
996.101
996.1
996.097
996.095
996.094
996.092
996.091
996.09
996.09
996.089
996.089
996.089
996.089
996.09
996.09
996.091
996.092
996.092
996.093
996.094
996.095
996.096
996.097
996.098
996.099
996.1
996.101
996.102
996.103
996.104
996.104
996.105
996.106
996.106
996.107
996.108
996.108
996.108
996.108
996.109
996.109
996.108
996.108
996.108
996.107
996.106
996.106
996.105
996.103
996.102
996.1
996.107
996.103
996.102
996.1
996.098
996.097
996.096
996.095
996.094
996.094
996.094
996.094
996.094
996.094
996.094
996.095
996.095
996.096
996.097
996.097
996.098
996.099
996.1
996.101
996.101
996.102
996.103
996.104
996.104
996.105
996.106
996.106
996.107
996.107
996.108
996.108
996.108
996.108
996.108
996.108
996.108
996.108
996.107
996.107
996.106
996.105
996.104
996.103
996.102
996.1
996.113
996.11
996.108
996.106
996.104
996.102
996.101
996.1
996.099
996.099
996.098
996.098
996.098
996.098
996.098
996.098
996.099
996.099
996.099
996.1
996.1
996.101
996.102
996.102
996.103
996.104
996.104
996.105
996.105
996.106
996.106
996.107
996.107
996.108
996.108
996.108
996.108
996.108
996.108
996.108
996.108
996.108
996.107
996.107
996.106
996.105
996.104
996.103
996.102
996.1
996.119
996.116
996.113
996.111
996.109
996.108
996.106
996.105
996.104
996.103
996.102
996.102
996.102
996.101
996.101
996.101
996.101
996.102
996.102
996.102
996.103
996.103
996.104
996.104
996.104
996.105
996.105
996.106
996.106
996.107
996.107
996.108
996.108
996.108
996.108
996.108
996.108
996.108
996.108
996.108
996.108
996.107
996.107
996.106
996.106
996.105
996.104
996.103
996.102
996.1
996.125
996.121
996.119
996.116
996.114
996.112
996.111
996.109
996.108
996.107
996.106
996.106
996.105
996.105
996.105
996.104
996.104
996.104
996.104
996.105
996.105
996.105
996.105
996.106
996.106
996.106
996.107
996.107
996.107
996.108
996.108
996.108
996.108
996.109
996.109
996.109
996.109
996.109
996.108
996.108
996.108
996.108
996.107
996.106
996.106
996.105
996.104
996.103
996.102
996.101
996.13
996.126
996.124
996.121
996.119
996.117
996.115
996.114
996.112
996.111
996.11
996.109
996.109
996.108
996.108
996.107
996.107
996.107
996.107
996.107
996.107
996.107
996.107
996.107
996.108
996.108
996.108
996.108
996.108
996.109
996.109
996.109
996.109
996.109
996.109
996.109
996.109
996.109
996.109
996.108
996.108
996.108
996.107
996.107
996.106
996.105
996.104
996.103
996.102
996.101
996.135
996.131
996.128
996.126
996.123
996.121
996.119
996.118
996.116
996.115
996.114
996.113
996.112
996.111
996.111
996.11
996.11
996.109
996.109
996.109
996.109
996.109
996.109
996.109
996.109
996.109
996.109
996.109
996.109
996.109
996.109
996.11
996.11
996.11
996.11
996.109
996.109
996.109
996.109
996.109
996.108
996.108
996.107
996.107
996.106
996.105
996.105
996.104
996.103
996.102
996.139
996.135
996.133
996.13
996.128
996.125
996.123
996.121
996.12
996.118
996.117
996.116
996.115
996.114
996.113
996.113
996.112
996.112
996.111
996.111
996.111
996.111
996.111
996.11
996.11
996.11
996.11
996.11
996.11
996.11
996.11
996.11
996.11
996.11
996.11
996.11
996.11
996.109
996.109
996.109
996.108
996.108
996.108
996.107
996.106
996.106
996.105
996.104
996.103
996.102
996.143
996.139
996.137
996.134
996.131
996.129
996.127
996.125
996.123
996.122
996.12
996.119
996.118
996.117
996.116
996.115